
     Program PWSCF v.6.7MaX starts on 18Oct2024 at 16:11:58 

     This program is part of the open-source Quantum ESPRESSO suite
     for quantum simulation of materials; please cite
         "P. Giannozzi et al., J. Phys.:Condens. Matter 21 395502 (2009);
         "P. Giannozzi et al., J. Phys.:Condens. Matter 29 465901 (2017);
          URL http://www.quantum-espresso.org", 
     in publications or presentations arising from this work. More details at
     http://www.quantum-espresso.org/quote

     Parallel version (MPI), running on    20 processors

     MPI processes distributed on     2 nodes
     R & G space division:  proc/nbgrp/npool/nimage =      20
     Reading input from scf.in

     Current dimensions of program PWSCF are:
     Max number of different atomic species (ntypx) = 10
     Max number of k-points (npk) =  40000
     Max angular momentum in pseudopotentials (lmaxx) =  3
     file Oh.pbe-n-kjpaw_psl.1.0.0.UPF: wavefunction(s)  2S renormalized
     file O.pbe-n-kjpaw_psl.1.0.0.UPF: wavefunction(s)  2S 2P renormalized
     file Mn.pbe-spn-kjpaw_psl.0.3.1.UPF: wavefunction(s)  3P 3D renormalized
     file Cr.pbe-spn-kjpaw_psl.1.0.0.UPF: wavefunction(s)  3S 3P 3D renormalized
     file La.pbe-spfn-kjpaw_psl.1.0.0.UPF: wavefunction(s)  5S 5D 4F renormalized
     file Ca.pbe-spn-kjpaw_psl.1.0.0.UPF: wavefunction(s)  3S renormalized

     Subspace diagonalization in iterative solution of the eigenvalue problem:
     a serial algorithm will be used

 
     Parallelization info
     --------------------
     sticks:   dense  smooth     PW     G-vecs:    dense   smooth      PW
     Min         477     287     78                29785    13845    1966
     Max         478     288     79                29788    13848    1968
     Sum        9559    5757   1565               595739   276929   39341
 


     bravais-lattice index     =            8
     lattice parameter (alat)  =      10.3992  a.u.
     unit-cell volume          =    1559.4122 (a.u.)^3
     number of atoms/cell      =           20
     number of atomic types    =            6
     number of electrons       =       173.00
     number of Kohn-Sham states=          104
     kinetic-energy cutoff     =     120.0000  Ry
     charge density cutoff     =     800.0000  Ry
     scf convergence threshold =      1.0E-06
     mixing beta               =       0.4000
     number of iterations used =            8  plain     mixing
     Exchange-correlation= SLA  PW   PBX  PBC
                           (   1   4   3   4   0   0   0)

     celldm(1)=  10.399163  celldm(2)=   1.389424  celldm(3)=   0.998001
     celldm(4)=   0.000000  celldm(5)=   0.000000  celldm(6)=   0.000000

     crystal axes: (cart. coord. in units of alat)
               a(1) = (   1.000000   0.000000   0.000000 )  
               a(2) = (   0.000000   1.389424   0.000000 )  
               a(3) = (   0.000000   0.000000   0.998001 )  

     reciprocal axes: (cart. coord. in units 2 pi/alat)
               b(1) = (  1.000000  0.000000  0.000000 )  
               b(2) = (  0.000000  0.719723  0.000000 )  
               b(3) = (  0.000000  0.000000  1.002003 )  


     PseudoPot. # 1 for O  read from file:
     ./Oh.pbe-n-kjpaw_psl.1.0.0.UPF
     MD5 check sum: 771e5e8de0816322a0a57b1c807f10d0
     Pseudo is Projector augmented-wave + core cor, Zval =  7.0
     Generated using &quot;atomic&quot; code by A. Dal Corso  v.6.4.1
     Shape of augmentation charge: PSQ
     Using radial grid of 1095 points,  4 beta functions with: 
                l(1) =   0
                l(2) =   0
                l(3) =   1
                l(4) =   1
     Q(r) pseudized with 0 coefficients 


     PseudoPot. # 2 for O  read from file:
     ./O.pbe-n-kjpaw_psl.1.0.0.UPF
     MD5 check sum: d376a1e59248a575047f657679e84f03
     Pseudo is Projector augmented-wave + core cor, Zval =  6.0
     Generated using 'atomic' code by A. Dal Corso  v.6.7MaX
     Shape of augmentation charge: PSQ
     Using radial grid of 1095 points,  4 beta functions with: 
                l(1) =   0
                l(2) =   0
                l(3) =   1
                l(4) =   1
     Q(r) pseudized with 0 coefficients 


     PseudoPot. # 3 for Mn read from file:
     ./Mn.pbe-spn-kjpaw_psl.0.3.1.UPF
     MD5 check sum: ba19e6d7ccbc12830efad05ba8577d9c
     Pseudo is Projector augmented-wave + core cor, Zval = 15.0
     Generated using &quot;atomic&quot; code by A. Dal Corso  v.6.2.2
     Shape of augmentation charge: PSQ
     Using radial grid of 1187 points,  6 beta functions with: 
                l(1) =   0
                l(2) =   0
                l(3) =   1
                l(4) =   1
                l(5) =   2
                l(6) =   2
     Q(r) pseudized with 0 coefficients 


     PseudoPot. # 4 for Cr read from file:
     ./Cr.pbe-spn-kjpaw_psl.1.0.0.UPF
     MD5 check sum: 198f1a2427a48552563eee314eba32ba
     Pseudo is Projector augmented-wave + core cor, Zval = 14.0
     Generated using &quot;atomic&quot; code by A. Dal Corso  v.6.3
     Shape of augmentation charge: PSQ
     Using radial grid of 1183 points,  6 beta functions with: 
                l(1) =   0
                l(2) =   0
                l(3) =   1
                l(4) =   1
                l(5) =   2
                l(6) =   2
     Q(r) pseudized with 0 coefficients 


     PseudoPot. # 5 for La read from file:
     ./La.pbe-spfn-kjpaw_psl.1.0.0.UPF
     MD5 check sum: 19c120b9b226ebe8b71b17784232f739
     Pseudo is Projector augmented-wave + core cor, Zval = 11.0
     Generated using &quot;atomic&quot; code by A. Dal Corso  v.6.2.2
     Shape of augmentation charge: PSQ
     Using radial grid of 1253 points,  8 beta functions with: 
                l(1) =   0
                l(2) =   0
                l(3) =   1
                l(4) =   1
                l(5) =   2
                l(6) =   2
                l(7) =   3
                l(8) =   3
     Q(r) pseudized with 0 coefficients 


     PseudoPot. # 6 for Ca read from file:
     ./Ca.pbe-spn-kjpaw_psl.1.0.0.UPF
     MD5 check sum: 1e11ab70c77b02a7d7d676f41d47b751
     Pseudo is Projector augmented-wave + core cor, Zval = 10.0
     Generated using &quot;atomic&quot; code by A. Dal Corso  v.6.4.1
     Shape of augmentation charge: PSQ
     Using radial grid of 1169 points,  6 beta functions with: 
                l(1) =   0
                l(2) =   0
                l(3) =   1
                l(4) =   1
                l(5) =   2
                l(6) =   2
     Q(r) pseudized with 0 coefficients 


     atomic species   valence    mass     pseudopotential
        Oh             7.00    15.99940     O ( 1.00)
        O              6.00    15.99940     O ( 1.00)
        Mn            15.00    54.93805     Mn( 1.00)
        Cr            14.00    51.99610     Cr( 1.00)
        La            11.00   138.90550     La( 1.00)
        Ca            10.00    40.07800     Ca( 1.00)

     Starting magnetic structure 
     atomic species   magnetization
        Oh           0.000
        O            0.000
        Mn           0.100
        Cr           0.100
        La           0.000
        Ca           0.000


     Simplified LDA+U calculation (l_max = 2) with parameters (eV):
     atomic species    L          U    alpha       J0     beta
        Mn             2     4.0000   0.0000   0.2000   0.0000
        Cr             2     4.0000   0.0000   0.3000   0.0000



     No symmetry found



   Cartesian axes

     site n.     atom                  positions (alat units)
         1           Oh  tau(   1) = (   0.2198861   0.0524630   0.2809086  )
         2           O   tau(   2) = (   0.2764165   1.3285364   0.7717701  )
         3           O   tau(   3) = (   0.7861150   0.7506598   0.7112868  )
         4           O   tau(   4) = (   0.7108526   0.6334608   0.2102161  )
         5           O   tau(   5) = (   0.7797719   1.3332902   0.7191236  )
         6           O   tau(   6) = (   0.7189495   0.0611292   0.2198621  )
         7           O   tau(   7) = (   0.2100373   0.6446956   0.2891499  )
         8           O   tau(   8) = (   0.2812659   0.7563774   0.7794318  )
         9           O   tau(   9) = (   0.5197896   0.3428308   0.5888881  )
        10           O   tau(  10) = (   0.9848484   1.0467943   0.0721257  )
        11           O   tau(  11) = (   0.4913382   1.0464825   0.4233307  )
        12           O   tau(  12) = (   0.0320883   0.3426947   0.9201148  )
        13           Mn  tau(  13) = (   0.0002317   0.0051027  -0.0002726  )
        14           Mn  tau(  14) = (   0.5001425   0.0057805   0.4993062  )
        15           Cr  tau(  15) = (  -0.0006662   0.6894917  -0.0004508  )
        16           Cr  tau(  16) = (   0.4997185   0.6885995   0.4985406  )
        17           La  tau(  17) = (   0.0321494   1.0398855   0.5039246  )
        18           La  tau(  18) = (   0.5298959   1.0386377   0.9907921  )
        19           La  tau(  19) = (   0.9673120   0.3496951   0.4921363  )
        20           Ca  tau(  20) = (   0.4598570   0.3482077   0.0118254  )

     number of k points=    36  Gaussian smearing, width (Ry)=  0.0100
                       cart. coord. in units 2pi/alat
        k(    1) = (   0.0000000   0.0000000   0.0000000), wk =   0.0156250
        k(    2) = (   0.0000000   0.0000000   0.2505007), wk =   0.0312500
        k(    3) = (   0.0000000   0.0000000  -0.5010015), wk =   0.0156250
        k(    4) = (   0.0000000   0.1799307   0.0000000), wk =   0.0312500
        k(    5) = (   0.0000000   0.1799307   0.2505007), wk =   0.0312500
        k(    6) = (   0.0000000   0.1799307  -0.5010015), wk =   0.0312500
        k(    7) = (   0.0000000  -0.3598614   0.0000000), wk =   0.0156250
        k(    8) = (   0.0000000  -0.3598614   0.2505007), wk =   0.0312500
        k(    9) = (   0.0000000  -0.3598614  -0.5010015), wk =   0.0156250
        k(   10) = (   0.2500000   0.0000000   0.0000000), wk =   0.0312500
        k(   11) = (   0.2500000   0.0000000   0.2505007), wk =   0.0312500
        k(   12) = (   0.2500000   0.0000000  -0.5010015), wk =   0.0312500
        k(   13) = (   0.2500000   0.1799307   0.0000000), wk =   0.0312500
        k(   14) = (   0.2500000   0.1799307   0.2505007), wk =   0.0312500
        k(   15) = (   0.2500000   0.1799307  -0.5010015), wk =   0.0312500
        k(   16) = (   0.2500000  -0.3598614   0.0000000), wk =   0.0312500
        k(   17) = (   0.2500000  -0.3598614   0.2505007), wk =   0.0312500
        k(   18) = (   0.2500000  -0.3598614  -0.5010015), wk =   0.0312500
        k(   19) = (  -0.5000000   0.0000000   0.0000000), wk =   0.0156250
        k(   20) = (  -0.5000000   0.0000000   0.2505007), wk =   0.0312500
        k(   21) = (  -0.5000000   0.0000000  -0.5010015), wk =   0.0156250
        k(   22) = (  -0.5000000   0.1799307   0.0000000), wk =   0.0312500
        k(   23) = (  -0.5000000   0.1799307   0.2505007), wk =   0.0312500
        k(   24) = (  -0.5000000   0.1799307  -0.5010015), wk =   0.0312500
        k(   25) = (  -0.5000000  -0.3598614   0.0000000), wk =   0.0156250
        k(   26) = (  -0.5000000  -0.3598614   0.2505007), wk =   0.0312500
        k(   27) = (  -0.5000000  -0.3598614  -0.5010015), wk =   0.0156250
        k(   28) = (   0.0000000  -0.1799307   0.2505007), wk =   0.0312500
        k(   29) = (  -0.2500000   0.0000000   0.2505007), wk =   0.0312500
        k(   30) = (  -0.2500000   0.1799307   0.0000000), wk =   0.0312500
        k(   31) = (  -0.2500000  -0.1799307   0.2505007), wk =   0.0312500
        k(   32) = (  -0.2500000   0.1799307  -0.2505007), wk =   0.0312500
        k(   33) = (   0.2500000  -0.1799307  -0.2505007), wk =   0.0312500
        k(   34) = (  -0.2500000   0.1799307   0.5010015), wk =   0.0312500
        k(   35) = (  -0.2500000   0.3598614   0.2505007), wk =   0.0312500
        k(   36) = (   0.5000000  -0.1799307   0.2505007), wk =   0.0312500

     Dense  grid:   595739 G-vectors     FFT dimensions: (  96, 135,  96)

     Smooth grid:   276929 G-vectors     FFT dimensions: (  75, 108,  75)

     Estimated max dynamical RAM per process >     569.60 MB

     Estimated total dynamical RAM >      11.13 GB

     Check: negative core charge=   -0.000001
     Generating pointlists ...
     new r_m :   0.1478 (alat units)  1.5372 (a.u.) for type    1
     new r_m :   0.1435 (alat units)  1.4922 (a.u.) for type    2
     new r_m :   0.1435 (alat units)  1.4922 (a.u.) for type    3
     new r_m :   0.1472 (alat units)  1.5307 (a.u.) for type    4
     new r_m :   0.1780 (alat units)  1.8508 (a.u.) for type    5
     new r_m :   0.1754 (alat units)  1.8240 (a.u.) for type    6

     Initial potential from superposition of free atoms

     starting charge  166.90325, renormalised to  173.00000
     Number of +U iterations with fixed ns =  0
     Starting occupations:
 --- enter write_ns ---
 LDA+U parameters:
U( 3)     =  4.00000000
J0( 3)     =  0.20000000
U( 4)     =  4.00000000
J0( 4)     =  0.30000000
atom   13   Tr[ns(na)] (up, down, total) =   5.00000  0.00000  5.00000
   spin  1
    eigenvalues: 
  1.000  1.000  1.000  1.000  1.000
    eigenvectors:
  1.000  0.000  0.000  0.000  0.000
  0.000  1.000  0.000  0.000  0.000
  0.000  0.000  1.000  0.000  0.000
  0.000  0.000  0.000  1.000  0.000
  0.000  0.000  0.000  0.000  1.000
    occupations:
  1.000  0.000  0.000  0.000  0.000
  0.000  1.000  0.000  0.000  0.000
  0.000  0.000  1.000  0.000  0.000
  0.000  0.000  0.000  1.000  0.000
  0.000  0.000  0.000  0.000  1.000
   spin  2
    eigenvalues: 
  0.000  0.000  0.000  0.000  0.000
    eigenvectors:
  1.000  0.000  0.000  0.000  0.000
  0.000  1.000  0.000  0.000  0.000
  0.000  0.000  1.000  0.000  0.000
  0.000  0.000  0.000  1.000  0.000
  0.000  0.000  0.000  0.000  1.000
    occupations:
  0.000  0.000  0.000  0.000  0.000
  0.000  0.000  0.000  0.000  0.000
  0.000  0.000  0.000  0.000  0.000
  0.000  0.000  0.000  0.000  0.000
  0.000  0.000  0.000  0.000  0.000
atomic mag. moment =   5.00000
atom   14   Tr[ns(na)] (up, down, total) =   5.00000  0.00000  5.00000
   spin  1
    eigenvalues: 
  1.000  1.000  1.000  1.000  1.000
    eigenvectors:
  1.000  0.000  0.000  0.000  0.000
  0.000  1.000  0.000  0.000  0.000
  0.000  0.000  1.000  0.000  0.000
  0.000  0.000  0.000  1.000  0.000
  0.000  0.000  0.000  0.000  1.000
    occupations:
  1.000  0.000  0.000  0.000  0.000
  0.000  1.000  0.000  0.000  0.000
  0.000  0.000  1.000  0.000  0.000
  0.000  0.000  0.000  1.000  0.000
  0.000  0.000  0.000  0.000  1.000
   spin  2
    eigenvalues: 
  0.000  0.000  0.000  0.000  0.000
    eigenvectors:
  1.000  0.000  0.000  0.000  0.000
  0.000  1.000  0.000  0.000  0.000
  0.000  0.000  1.000  0.000  0.000
  0.000  0.000  0.000  1.000  0.000
  0.000  0.000  0.000  0.000  1.000
    occupations:
  0.000  0.000  0.000  0.000  0.000
  0.000  0.000  0.000  0.000  0.000
  0.000  0.000  0.000  0.000  0.000
  0.000  0.000  0.000  0.000  0.000
  0.000  0.000  0.000  0.000  0.000
atomic mag. moment =   5.00000
atom   15   Tr[ns(na)] (up, down, total) =   5.00000  0.00000  5.00000
   spin  1
    eigenvalues: 
  1.000  1.000  1.000  1.000  1.000
    eigenvectors:
  1.000  0.000  0.000  0.000  0.000
  0.000  1.000  0.000  0.000  0.000
  0.000  0.000  1.000  0.000  0.000
  0.000  0.000  0.000  1.000  0.000
  0.000  0.000  0.000  0.000  1.000
    occupations:
  1.000  0.000  0.000  0.000  0.000
  0.000  1.000  0.000  0.000  0.000
  0.000  0.000  1.000  0.000  0.000
  0.000  0.000  0.000  1.000  0.000
  0.000  0.000  0.000  0.000  1.000
   spin  2
    eigenvalues: 
  0.000  0.000  0.000  0.000  0.000
    eigenvectors:
  1.000  0.000  0.000  0.000  0.000
  0.000  1.000  0.000  0.000  0.000
  0.000  0.000  1.000  0.000  0.000
  0.000  0.000  0.000  1.000  0.000
  0.000  0.000  0.000  0.000  1.000
    occupations:
  0.000  0.000  0.000  0.000  0.000
  0.000  0.000  0.000  0.000  0.000
  0.000  0.000  0.000  0.000  0.000
  0.000  0.000  0.000  0.000  0.000
  0.000  0.000  0.000  0.000  0.000
atomic mag. moment =   5.00000
atom   16   Tr[ns(na)] (up, down, total) =   5.00000  0.00000  5.00000
   spin  1
    eigenvalues: 
  1.000  1.000  1.000  1.000  1.000
    eigenvectors:
  1.000  0.000  0.000  0.000  0.000
  0.000  1.000  0.000  0.000  0.000
  0.000  0.000  1.000  0.000  0.000
  0.000  0.000  0.000  1.000  0.000
  0.000  0.000  0.000  0.000  1.000
    occupations:
  1.000  0.000  0.000  0.000  0.000
  0.000  1.000  0.000  0.000  0.000
  0.000  0.000  1.000  0.000  0.000
  0.000  0.000  0.000  1.000  0.000
  0.000  0.000  0.000  0.000  1.000
   spin  2
    eigenvalues: 
  0.000  0.000  0.000  0.000  0.000
    eigenvectors:
  1.000  0.000  0.000  0.000  0.000
  0.000  1.000  0.000  0.000  0.000
  0.000  0.000  1.000  0.000  0.000
  0.000  0.000  0.000  1.000  0.000
  0.000  0.000  0.000  0.000  1.000
    occupations:
  0.000  0.000  0.000  0.000  0.000
  0.000  0.000  0.000  0.000  0.000
  0.000  0.000  0.000  0.000  0.000
  0.000  0.000  0.000  0.000  0.000
  0.000  0.000  0.000  0.000  0.000
atomic mag. moment =   5.00000
N of occupied +U levels =   20.000000
 --- exit write_ns ---
 Atomic wfc used for LDA+U Projector are NOT orthogonalized
     Starting wfcs are  156 randomized atomic wfcs
     Checking if some PAW data can be deallocated... 

     total cpu time spent up to now is       31.5 secs

     Self-consistent Calculation

     iteration #  1     ecut=   120.00 Ry     beta= 0.40
     Davidson diagonalization with overlap
     ethr =  1.00E-02,  avg # of iterations =  2.4
 --- enter write_ns ---
 LDA+U parameters:
U( 3)     =  4.00000000
J0( 3)     =  0.20000000
U( 4)     =  4.00000000
J0( 4)     =  0.30000000
atom   13   Tr[ns(na)] (up, down, total) =   4.09442  0.59041  4.68483
   spin  1
    eigenvalues: 
  0.485  0.800  0.921  0.938  0.950
    eigenvectors:
  0.131  0.166  0.148  0.549  0.006
  0.092  0.783  0.034  0.048  0.043
  0.099  0.005  0.542  0.305  0.049
  0.638  0.026  0.232  0.062  0.043
  0.041  0.021  0.044  0.036  0.859
    occupations:
  0.853 -0.001  0.060 -0.136  0.025
 -0.001  0.788  0.037 -0.088  0.047
  0.060  0.037  0.884  0.110 -0.022
 -0.136 -0.088  0.110  0.643  0.074
  0.025  0.047 -0.022  0.074  0.927
   spin  2
    eigenvalues: 
  0.071  0.080  0.096  0.158  0.184
    eigenvectors:
  0.000  0.441  0.358  0.011  0.190
  0.014  0.010  0.005  0.970  0.000
  0.008  0.541  0.346  0.002  0.103
  0.055  0.005  0.257  0.001  0.682
  0.922  0.003  0.034  0.016  0.026
    occupations:
  0.107 -0.008 -0.020  0.032 -0.004
 -0.008  0.156 -0.004  0.000 -0.010
 -0.020 -0.004  0.097 -0.023  0.003
  0.032  0.000 -0.023  0.155 -0.018
 -0.004 -0.010  0.003 -0.018  0.076
atomic mag. moment =   3.50401
atom   14   Tr[ns(na)] (up, down, total) =   4.08598  0.57852  4.66450
   spin  1
    eigenvalues: 
  0.460  0.811  0.922  0.934  0.959
    eigenvectors:
  0.226  0.008  0.082  0.683  0.001
  0.108  0.730  0.013  0.101  0.048
  0.133  0.000  0.004  0.067  0.796
  0.531  0.205  0.046  0.080  0.139
  0.002  0.057  0.855  0.070  0.017
    occupations:
  0.825 -0.084 -0.082 -0.159 -0.010
 -0.084  0.794 -0.060 -0.064 -0.031
 -0.082 -0.060  0.891 -0.135 -0.004
 -0.159 -0.064 -0.135  0.660 -0.006
 -0.010 -0.031 -0.004 -0.006  0.916
   spin  2
    eigenvalues: 
  0.070  0.073  0.090  0.161  0.185
    eigenvectors:
  0.002  0.012  0.781  0.007  0.198
  0.032  0.033  0.021  0.894  0.020
  0.819  0.037  0.014  0.004  0.126
  0.116  0.005  0.169  0.055  0.656
  0.032  0.913  0.016  0.040  0.000
    occupations:
  0.109  0.012  0.016  0.032 -0.001
  0.012  0.154  0.012 -0.006  0.017
  0.016  0.012  0.085  0.033  0.000
  0.032 -0.006  0.033  0.154 -0.004
 -0.001  0.017  0.000 -0.004  0.077
atomic mag. moment =   3.50746
atom   15   Tr[ns(na)] (up, down, total) =   1.39591  0.56985  1.96576
   spin  1
    eigenvalues: 
  0.176  0.267  0.272  0.287  0.394
    eigenvectors:
  0.071  0.216  0.144  0.567  0.002
  0.057  0.110  0.575  0.246  0.011
  0.008  0.128  0.023  0.052  0.788
  0.007  0.545  0.255  0.021  0.171
  0.856  0.000  0.003  0.113  0.027
    occupations:
  0.273  0.001 -0.001 -0.003  0.028
  0.001  0.271  0.008 -0.004  0.026
 -0.001  0.008  0.368 -0.045  0.025
 -0.003 -0.004 -0.045  0.290 -0.017
  0.028  0.026  0.025 -0.017  0.195
   spin  2
    eigenvalues: 
  0.067  0.070  0.072  0.178  0.183
    eigenvectors:
  0.088  0.254  0.387  0.226  0.046
  0.095  0.013  0.018  0.005  0.869
  0.077  0.716  0.077  0.129  0.000
  0.031  0.010  0.294  0.631  0.033
  0.709  0.007  0.224  0.009  0.052
    occupations:
  0.100 -0.026  0.019  0.036  0.001
 -0.026  0.169 -0.003  0.013  0.024
  0.019 -0.003  0.084  0.031  0.005
  0.036  0.013  0.031  0.142  0.012
  0.001  0.024  0.005  0.012  0.075
atomic mag. moment =   0.82606
atom   16   Tr[ns(na)] (up, down, total) =   1.40683  0.57247  1.97930
   spin  1
    eigenvalues: 
  0.203  0.231  0.270  0.279  0.424
    eigenvectors:
  0.142  0.297  0.288  0.000  0.273
  0.051  0.003  0.024  0.920  0.002
  0.232  0.631  0.096  0.014  0.027
  0.191  0.007  0.591  0.058  0.153
  0.385  0.061  0.001  0.008  0.545
    occupations:
  0.291  0.000 -0.018 -0.019  0.080
  0.000  0.275 -0.009 -0.006 -0.015
 -0.018 -0.009  0.234 -0.001 -0.031
 -0.019 -0.006 -0.001  0.281 -0.063
  0.080 -0.015 -0.031 -0.063  0.326
   spin  2
    eigenvalues: 
  0.068  0.069  0.074  0.178  0.183
    eigenvectors:
  0.390  0.006  0.365  0.174  0.065
  0.072  0.049  0.004  0.001  0.873
  0.231  0.612  0.013  0.140  0.005
  0.004  0.135  0.169  0.681  0.011
  0.303  0.199  0.449  0.004  0.046
    occupations:
  0.097  0.026 -0.020  0.033 -0.001
  0.026  0.169 -0.006 -0.014 -0.023
 -0.020 -0.006  0.085 -0.033 -0.001
  0.033 -0.014 -0.033  0.145  0.007
 -0.001 -0.023 -0.001  0.007  0.077
atomic mag. moment =   0.83436
N of occupied +U levels =   13.294396
 --- exit write_ns ---

     total cpu time spent up to now is       85.7 secs

     total energy              =   -3079.10626276 Ry
     estimated scf accuracy    <      27.29968974 Ry

     total magnetization       =     8.54 Bohr mag/cell
     absolute magnetization    =    10.19 Bohr mag/cell

     iteration #  2     ecut=   120.00 Ry     beta= 0.40
     Davidson diagonalization with overlap
     ethr =  1.00E-02,  avg # of iterations =  5.7

     total cpu time spent up to now is      171.3 secs

     total energy              =   -3074.31001987 Ry
     estimated scf accuracy    <     153.74276906 Ry

     total magnetization       =     6.83 Bohr mag/cell
     absolute magnetization    =     8.65 Bohr mag/cell

     iteration #  3     ecut=   120.00 Ry     beta= 0.40
     Davidson diagonalization with overlap
     ethr =  1.00E-02,  avg # of iterations =  4.3

     total cpu time spent up to now is      233.0 secs

     total energy              =   -3084.53411986 Ry
     estimated scf accuracy    <      76.69233797 Ry

     total magnetization       =     1.59 Bohr mag/cell
     absolute magnetization    =     2.29 Bohr mag/cell

     iteration #  4     ecut=   120.00 Ry     beta= 0.40
     Davidson diagonalization with overlap
     ethr =  1.00E-02,  avg # of iterations =  1.6

     total cpu time spent up to now is      277.4 secs

     total energy              =   -3089.76023787 Ry
     estimated scf accuracy    <       5.27671157 Ry

     total magnetization       =    11.62 Bohr mag/cell
     absolute magnetization    =    11.97 Bohr mag/cell

     iteration #  5     ecut=   120.00 Ry     beta= 0.40
     Davidson diagonalization with overlap
     ethr =  3.05E-03,  avg # of iterations =  1.0

     total cpu time spent up to now is      319.7 secs

     total energy              =   -3089.93745278 Ry
     estimated scf accuracy    <       1.73625373 Ry

     total magnetization       =    13.00 Bohr mag/cell
     absolute magnetization    =    13.27 Bohr mag/cell

     iteration #  6     ecut=   120.00 Ry     beta= 0.40
     Davidson diagonalization with overlap
     ethr =  1.00E-03,  avg # of iterations =  1.7

     total cpu time spent up to now is      364.4 secs

     total energy              =   -3089.99599117 Ry
     estimated scf accuracy    <       1.17063737 Ry

     total magnetization       =    13.00 Bohr mag/cell
     absolute magnetization    =    13.44 Bohr mag/cell

     iteration #  7     ecut=   120.00 Ry     beta= 0.40
     Davidson diagonalization with overlap
     ethr =  6.77E-04,  avg # of iterations =  2.0

     total cpu time spent up to now is      409.9 secs

     total energy              =   -3090.10343689 Ry
     estimated scf accuracy    <       0.71047220 Ry

     total magnetization       =    13.00 Bohr mag/cell
     absolute magnetization    =    13.62 Bohr mag/cell

     iteration #  8     ecut=   120.00 Ry     beta= 0.40
     Davidson diagonalization with overlap
     ethr =  4.11E-04,  avg # of iterations =  5.8

     total cpu time spent up to now is      463.0 secs

     total energy              =   -3090.17242431 Ry
     estimated scf accuracy    <       0.20622752 Ry

     total magnetization       =    13.00 Bohr mag/cell
     absolute magnetization    =    14.02 Bohr mag/cell

     iteration #  9     ecut=   120.00 Ry     beta= 0.40
     Davidson diagonalization with overlap
     c_bands:  4 eigenvalues not converged
     c_bands:  2 eigenvalues not converged
     c_bands:  1 eigenvalues not converged
     c_bands:  4 eigenvalues not converged
     c_bands:  2 eigenvalues not converged
     c_bands:  1 eigenvalues not converged
     c_bands:  2 eigenvalues not converged
     c_bands:  2 eigenvalues not converged
     c_bands:  2 eigenvalues not converged
     c_bands:  1 eigenvalues not converged
     c_bands:  1 eigenvalues not converged
     ethr =  1.19E-04,  avg # of iterations = 12.1

     total cpu time spent up to now is      537.4 secs

     total energy              =   -3090.19683591 Ry
     estimated scf accuracy    <       0.15301837 Ry

     total magnetization       =    13.00 Bohr mag/cell
     absolute magnetization    =    14.13 Bohr mag/cell

     iteration # 10     ecut=   120.00 Ry     beta= 0.40
     Davidson diagonalization with overlap
     ethr =  8.84E-05,  avg # of iterations =  1.7

     total cpu time spent up to now is      581.5 secs

     total energy              =   -3090.21084480 Ry
     estimated scf accuracy    <       0.01834016 Ry

     total magnetization       =    13.00 Bohr mag/cell
     absolute magnetization    =    14.25 Bohr mag/cell

     iteration # 11     ecut=   120.00 Ry     beta= 0.40
     Davidson diagonalization with overlap
     c_bands:  3 eigenvalues not converged
     c_bands:  4 eigenvalues not converged
     c_bands:  4 eigenvalues not converged
     c_bands:  2 eigenvalues not converged
     c_bands:  5 eigenvalues not converged
     c_bands:  2 eigenvalues not converged
     c_bands:  2 eigenvalues not converged
     c_bands:  5 eigenvalues not converged
     c_bands:  5 eigenvalues not converged
     c_bands:  4 eigenvalues not converged
     c_bands:  5 eigenvalues not converged
     c_bands:  4 eigenvalues not converged
     c_bands:  2 eigenvalues not converged
     c_bands:  1 eigenvalues not converged
     c_bands:  2 eigenvalues not converged
     c_bands:  4 eigenvalues not converged
     c_bands:  2 eigenvalues not converged
     c_bands:  4 eigenvalues not converged
     c_bands:  3 eigenvalues not converged
     c_bands:  3 eigenvalues not converged
     c_bands:  2 eigenvalues not converged
     c_bands:  4 eigenvalues not converged
     c_bands:  2 eigenvalues not converged
     c_bands:  2 eigenvalues not converged
     c_bands:  5 eigenvalues not converged
     c_bands:  1 eigenvalues not converged
     c_bands:  3 eigenvalues not converged
     c_bands:  3 eigenvalues not converged
     c_bands:  1 eigenvalues not converged
     c_bands:  3 eigenvalues not converged
     c_bands:  4 eigenvalues not converged
     c_bands:  2 eigenvalues not converged
     c_bands:  2 eigenvalues not converged
     c_bands:  3 eigenvalues not converged
     c_bands:  5 eigenvalues not converged
     c_bands:  4 eigenvalues not converged
     c_bands:  2 eigenvalues not converged
     c_bands:  3 eigenvalues not converged
     c_bands:  1 eigenvalues not converged
     c_bands:  2 eigenvalues not converged
     c_bands:  3 eigenvalues not converged
     c_bands:  2 eigenvalues not converged
     c_bands:  1 eigenvalues not converged
     c_bands:  3 eigenvalues not converged
     c_bands:  2 eigenvalues not converged
     c_bands:  2 eigenvalues not converged
     c_bands:  3 eigenvalues not converged
     ethr =  1.06E-05,  avg # of iterations = 29.5

     total cpu time spent up to now is      749.2 secs

     total energy              =   -3090.21695019 Ry
     estimated scf accuracy    <       0.00304970 Ry

     total magnetization       =    13.00 Bohr mag/cell
     absolute magnetization    =    14.38 Bohr mag/cell

     iteration # 12     ecut=   120.00 Ry     beta= 0.40
     Davidson diagonalization with overlap
     c_bands:  3 eigenvalues not converged
     c_bands:  4 eigenvalues not converged
     c_bands:  4 eigenvalues not converged
     c_bands:  5 eigenvalues not converged
     c_bands:  4 eigenvalues not converged
     c_bands:  4 eigenvalues not converged
     c_bands:  3 eigenvalues not converged
     c_bands:  5 eigenvalues not converged
     c_bands:  1 eigenvalues not converged
     c_bands:  2 eigenvalues not converged
     c_bands:  5 eigenvalues not converged
     c_bands:  2 eigenvalues not converged
     c_bands:  3 eigenvalues not converged
     c_bands:  3 eigenvalues not converged
     c_bands:  3 eigenvalues not converged
     c_bands:  2 eigenvalues not converged
     c_bands:  5 eigenvalues not converged
     c_bands:  4 eigenvalues not converged
     c_bands:  3 eigenvalues not converged
     c_bands:  4 eigenvalues not converged
     c_bands:  4 eigenvalues not converged
     c_bands:  4 eigenvalues not converged
     c_bands:  1 eigenvalues not converged
     c_bands:  3 eigenvalues not converged
     c_bands:  4 eigenvalues not converged
     c_bands:  5 eigenvalues not converged
     c_bands:  5 eigenvalues not converged
     c_bands:  5 eigenvalues not converged
     c_bands:  3 eigenvalues not converged
     c_bands:  5 eigenvalues not converged
     c_bands:  4 eigenvalues not converged
     c_bands:  1 eigenvalues not converged
     c_bands:  4 eigenvalues not converged
     c_bands:  1 eigenvalues not converged
     c_bands:  2 eigenvalues not converged
     c_bands:  4 eigenvalues not converged
     c_bands:  1 eigenvalues not converged
     c_bands:  2 eigenvalues not converged
     c_bands:  1 eigenvalues not converged
     c_bands:  3 eigenvalues not converged
     c_bands:  1 eigenvalues not converged
     c_bands:  1 eigenvalues not converged
     c_bands:  2 eigenvalues not converged
     c_bands:  1 eigenvalues not converged
     c_bands:  3 eigenvalues not converged
     c_bands:  5 eigenvalues not converged
     c_bands:  1 eigenvalues not converged
     ethr =  1.76E-06,  avg # of iterations = 18.9

     total cpu time spent up to now is      842.9 secs

     total energy              =   -3090.21825322 Ry
     estimated scf accuracy    <       0.00177310 Ry

     total magnetization       =    13.00 Bohr mag/cell
     absolute magnetization    =    14.43 Bohr mag/cell

     iteration # 13     ecut=   120.00 Ry     beta= 0.40
     Davidson diagonalization with overlap
     c_bands:  1 eigenvalues not converged
     c_bands:  1 eigenvalues not converged
     c_bands:  3 eigenvalues not converged
     c_bands:  3 eigenvalues not converged
     c_bands:  3 eigenvalues not converged
     c_bands:  2 eigenvalues not converged
     c_bands:  3 eigenvalues not converged
     c_bands:  2 eigenvalues not converged
     c_bands:  1 eigenvalues not converged
     c_bands:  1 eigenvalues not converged
     c_bands:  1 eigenvalues not converged
     c_bands:  1 eigenvalues not converged
     c_bands:  3 eigenvalues not converged
     c_bands:  3 eigenvalues not converged
     c_bands:  3 eigenvalues not converged
     c_bands:  3 eigenvalues not converged
     c_bands:  3 eigenvalues not converged
     c_bands:  1 eigenvalues not converged
     c_bands:  2 eigenvalues not converged
     c_bands:  1 eigenvalues not converged
     c_bands:  4 eigenvalues not converged
     ethr =  1.02E-06,  avg # of iterations =  8.0

     total cpu time spent up to now is      900.7 secs

     total energy              =   -3090.21870991 Ry
     estimated scf accuracy    <       0.00058024 Ry

     total magnetization       =    13.00 Bohr mag/cell
     absolute magnetization    =    14.51 Bohr mag/cell

     iteration # 14     ecut=   120.00 Ry     beta= 0.40
     Davidson diagonalization with overlap
     c_bands:  1 eigenvalues not converged
     c_bands:  2 eigenvalues not converged
     c_bands:  1 eigenvalues not converged
     c_bands:  1 eigenvalues not converged
     c_bands:  2 eigenvalues not converged
     c_bands:  1 eigenvalues not converged
     c_bands:  1 eigenvalues not converged
     c_bands:  2 eigenvalues not converged
     c_bands:  2 eigenvalues not converged
     c_bands:  1 eigenvalues not converged
     c_bands:  1 eigenvalues not converged
     c_bands:  1 eigenvalues not converged
     c_bands:  2 eigenvalues not converged
     c_bands:  2 eigenvalues not converged
     c_bands:  1 eigenvalues not converged
     c_bands:  2 eigenvalues not converged
     c_bands:  2 eigenvalues not converged
     c_bands:  1 eigenvalues not converged
     ethr =  3.35E-07,  avg # of iterations =  9.2

     total cpu time spent up to now is      965.6 secs

     total energy              =   -3090.21890193 Ry
     estimated scf accuracy    <       0.00015976 Ry

     total magnetization       =    13.00 Bohr mag/cell
     absolute magnetization    =    14.56 Bohr mag/cell

     iteration # 15     ecut=   120.00 Ry     beta= 0.40
     Davidson diagonalization with overlap
     c_bands:  1 eigenvalues not converged
     c_bands:  2 eigenvalues not converged
     c_bands:  2 eigenvalues not converged
     c_bands:  1 eigenvalues not converged
     c_bands:  1 eigenvalues not converged
     c_bands:  2 eigenvalues not converged
     c_bands:  1 eigenvalues not converged
     c_bands:  1 eigenvalues not converged
     c_bands:  2 eigenvalues not converged
     ethr =  9.23E-08,  avg # of iterations =  8.0

     total cpu time spent up to now is     1030.1 secs

     total energy              =   -3090.21898605 Ry
     estimated scf accuracy    <       0.00006871 Ry

     total magnetization       =    13.00 Bohr mag/cell
     absolute magnetization    =    14.59 Bohr mag/cell

     iteration # 16     ecut=   120.00 Ry     beta= 0.40
     Davidson diagonalization with overlap
     c_bands:  1 eigenvalues not converged
     ethr =  3.97E-08,  avg # of iterations =  4.7

     total cpu time spent up to now is     1086.0 secs

     total energy              =   -3090.21901860 Ry
     estimated scf accuracy    <       0.00002497 Ry

     total magnetization       =    13.00 Bohr mag/cell
     absolute magnetization    =    14.62 Bohr mag/cell

     iteration # 17     ecut=   120.00 Ry     beta= 0.40
     Davidson diagonalization with overlap
     c_bands:  1 eigenvalues not converged
     c_bands:  1 eigenvalues not converged
     c_bands:  2 eigenvalues not converged
     ethr =  1.44E-08,  avg # of iterations =  6.4

     total cpu time spent up to now is     1150.2 secs

     total energy              =   -3090.21903520 Ry
     estimated scf accuracy    <       0.00000679 Ry

     total magnetization       =    13.00 Bohr mag/cell
     absolute magnetization    =    14.64 Bohr mag/cell

     iteration # 18     ecut=   120.00 Ry     beta= 0.40
     Davidson diagonalization with overlap
     c_bands:  2 eigenvalues not converged
     c_bands:  3 eigenvalues not converged
     c_bands:  2 eigenvalues not converged
     c_bands:  1 eigenvalues not converged
     ethr =  3.92E-09,  avg # of iterations =  5.7

     total cpu time spent up to now is     1211.5 secs

     total energy              =   -3090.21903898 Ry
     estimated scf accuracy    <       0.00000276 Ry

     total magnetization       =    13.00 Bohr mag/cell
     absolute magnetization    =    14.65 Bohr mag/cell

     iteration # 19     ecut=   120.00 Ry     beta= 0.40
     Davidson diagonalization with overlap
     c_bands:  1 eigenvalues not converged
     ethr =  1.60E-09,  avg # of iterations =  4.8
 
     Magnetic moment per site:
     atom:    1    charge:    6.5115    magn:    0.0368    constr:    0.0000
     atom:    2    charge:    5.2858    magn:   -0.0576    constr:    0.0000
     atom:    3    charge:    5.3087    magn:   -0.0320    constr:    0.0000
     atom:    4    charge:    5.2866    magn:   -0.0519    constr:    0.0000
     atom:    5    charge:    5.2717    magn:   -0.1137    constr:    0.0000
     atom:    6    charge:    5.2737    magn:   -0.0484    constr:    0.0000
     atom:    7    charge:    5.3093    magn:   -0.0286    constr:    0.0000
     atom:    8    charge:    5.3034    magn:   -0.0471    constr:    0.0000
     atom:    9    charge:    5.2941    magn:   -0.0655    constr:    0.0000
     atom:   10    charge:    5.3029    magn:   -0.0542    constr:    0.0000
     atom:   11    charge:    5.2991    magn:   -0.0549    constr:    0.0000
     atom:   12    charge:    5.3131    magn:   -0.0560    constr:    0.0000
     atom:   13    charge:   11.7742    magn:    3.2743    constr:    0.0000
     atom:   14    charge:   11.7722    magn:    3.2509    constr:    0.0000
     atom:   15    charge:   10.8040    magn:    2.3945    constr:    0.0000
     atom:   16    charge:   10.8028    magn:    2.3899    constr:    0.0000
     atom:   17    charge:    6.2003    magn:    0.0100    constr:    0.0000
     atom:   18    charge:    6.1943    magn:    0.0099    constr:    0.0000
     atom:   19    charge:    6.1922    magn:    0.0117    constr:    0.0000
     atom:   20    charge:    7.5836    magn:    0.0054    constr:    0.0000

     total cpu time spent up to now is     1270.9 secs

     End of self-consistent calculation
 --- enter write_ns ---
 LDA+U parameters:
U( 3)     =  4.00000000
J0( 3)     =  0.20000000
U( 4)     =  4.00000000
J0( 4)     =  0.30000000
atom   13   Tr[ns(na)] (up, down, total) =   4.57836  1.02815  5.60651
   spin  1
    eigenvalues: 
  0.715  0.873  0.995  0.997  0.998
    eigenvectors:
  0.178  0.088  0.066  0.410  0.258
  0.030  0.849  0.015  0.000  0.106
  0.094  0.010  0.641  0.072  0.183
  0.687  0.001  0.040  0.096  0.176
  0.011  0.052  0.238  0.423  0.277
    occupations:
  0.936  0.013  0.040 -0.100  0.004
  0.013  0.884  0.003 -0.037  0.031
  0.040  0.003  0.968  0.072 -0.007
 -0.100 -0.037  0.072  0.803  0.023
  0.004  0.031 -0.007  0.023  0.987
   spin  2
    eigenvalues: 
  0.110  0.132  0.143  0.278  0.366
    eigenvectors:
  0.607  0.153  0.000  0.083  0.156
  0.055  0.003  0.016  0.859  0.066
  0.043  0.599  0.255  0.012  0.091
  0.240  0.001  0.071  0.019  0.669
  0.055  0.243  0.658  0.027  0.017
    occupations:
  0.167 -0.019 -0.029  0.090 -0.009
 -0.019  0.272 -0.002  0.034 -0.030
 -0.029 -0.002  0.157 -0.061  0.012
  0.090  0.034 -0.061  0.287 -0.017
 -0.009 -0.030  0.012 -0.017  0.146
atomic mag. moment =   3.55021
atom   14   Tr[ns(na)] (up, down, total) =   4.56728  1.04705  5.61433
   spin  1
    eigenvalues: 
  0.716  0.861  0.996  0.997  0.997
    eigenvectors:
  0.227  0.009  0.029  0.296  0.439
  0.057  0.823  0.002  0.003  0.115
  0.111  0.004  0.830  0.032  0.023
  0.604  0.100  0.087  0.068  0.141
  0.000  0.065  0.052  0.600  0.283
    occupations:
  0.932 -0.044 -0.044 -0.100 -0.005
 -0.044  0.869 -0.015 -0.013 -0.032
 -0.044 -0.015  0.964 -0.075  0.001
 -0.100 -0.013 -0.075  0.814  0.008
 -0.005 -0.032  0.001  0.008  0.988
   spin  2
    eigenvalues: 
  0.115  0.128  0.148  0.284  0.372
    eigenvectors:
  0.664  0.000  0.113  0.000  0.223
  0.060  0.004  0.012  0.814  0.110
  0.002  0.580  0.302  0.009  0.107
  0.188  0.117  0.000  0.135  0.560
  0.087  0.299  0.573  0.042  0.000
    occupations:
  0.176  0.042  0.034  0.090 -0.006
  0.042  0.281  0.012  0.007  0.029
  0.034  0.012  0.162  0.065  0.006
  0.090  0.007  0.065  0.283 -0.006
 -0.006  0.029  0.006 -0.006  0.145
atomic mag. moment =   3.52023
atom   15   Tr[ns(na)] (up, down, total) =   3.85285  1.08228  4.93513
   spin  1
    eigenvalues: 
  0.460  0.472  0.958  0.975  0.989
    eigenvectors:
  0.260  0.006  0.177  0.505  0.052
  0.058  0.862  0.003  0.030  0.048
  0.057  0.004  0.386  0.421  0.131
  0.624  0.098  0.199  0.044  0.035
  0.000  0.030  0.235  0.000  0.734
    occupations:
  0.836  0.099 -0.064 -0.193 -0.000
  0.099  0.512  0.001 -0.048 -0.084
 -0.064  0.001  0.938 -0.104 -0.015
 -0.193 -0.048 -0.104  0.601 -0.023
 -0.000 -0.084 -0.015 -0.023  0.966
   spin  2
    eigenvalues: 
  0.122  0.127  0.134  0.344  0.355
    eigenvectors:
  0.199  0.194  0.343  0.232  0.033
  0.087  0.004  0.008  0.006  0.896
  0.018  0.788  0.098  0.096  0.000
  0.049  0.006  0.253  0.662  0.031
  0.648  0.009  0.299  0.004  0.040
    occupations:
  0.186 -0.047  0.033  0.076  0.003
 -0.047  0.332 -0.003  0.025  0.043
  0.033 -0.003  0.149  0.054  0.007
  0.076  0.025  0.054  0.279  0.017
  0.003  0.043  0.007  0.017  0.136
atomic mag. moment =   2.77057
atom   16   Tr[ns(na)] (up, down, total) =   3.85095  1.08513  4.93608
   spin  1
    eigenvalues: 
  0.462  0.472  0.954  0.972  0.991
    eigenvectors:
  0.169  0.094  0.487  0.010  0.241
  0.055  0.863  0.005  0.004  0.072
  0.064  0.007  0.097  0.711  0.121
  0.708  0.009  0.095  0.050  0.137
  0.004  0.026  0.316  0.225  0.429
    occupations:
  0.835 -0.095  0.059 -0.191 -0.001
 -0.095  0.513  0.010  0.057  0.087
  0.059  0.010  0.936  0.117  0.003
 -0.191  0.057  0.117  0.607 -0.011
 -0.001  0.087  0.003 -0.011  0.959
   spin  2
    eigenvalues: 
  0.122  0.125  0.137  0.345  0.356
    eigenvectors:
  0.365  0.009  0.381  0.189  0.056
  0.070  0.027  0.002  0.002  0.899
  0.149  0.740  0.000  0.108  0.003
  0.017  0.141  0.138  0.698  0.006
  0.399  0.083  0.479  0.004  0.036
    occupations:
  0.183  0.048 -0.035  0.073  0.002
  0.048  0.333 -0.009 -0.026 -0.043
 -0.035 -0.009  0.149 -0.059 -0.001
  0.073 -0.026 -0.059  0.281  0.011
  0.002 -0.043 -0.001  0.011  0.139
atomic mag. moment =   2.76582
N of occupied +U levels =   21.092051
 --- exit write_ns ---

 ------ SPIN UP ------------


          k = 0.0000 0.0000 0.0000 ( 34611 PWs)   bands (ev):

   -69.7601 -69.7585 -60.3657 -60.3633 -38.5119 -38.5063 -38.4712 -38.4703
   -38.4213 -38.4172 -31.7205 -31.7189 -31.6835 -31.6701 -31.6538 -31.6473
   -26.5609 -18.5552 -18.3588 -18.2233 -10.2283  -7.7605  -7.7491  -7.7418
    -6.1924  -5.8823  -5.7502  -5.7279  -5.4975  -5.2599  -5.1651  -4.9683
    -4.8765  -4.8601  -4.5251  -2.5166  -2.2240  -2.1244  -2.0347  -1.9421
    -1.8199  -1.4892  -1.2271  -1.1746   3.2203   4.3210   4.6117   5.6618
     5.9244   6.1484   6.3359   6.4989   6.7268   6.8350   6.9396   6.9924
     7.1385   7.1525   7.4191   7.5595   7.6476   7.7965   8.1880   8.4106
     8.5023   8.5278   8.8878   8.9599   8.9767   9.1971   9.2959   9.5964
     9.6444   9.8346   9.9455  10.0069  10.0794  10.3322  10.3771  10.4738
    10.5440  10.7055  10.7621  10.8681  11.0507  11.1049  11.1144  11.1951
    11.2352  11.6691  11.7882  11.9550  12.3243  12.4821  13.1084  14.0751
    14.1477  15.0212  16.1769  16.2474  16.4303  16.4415  16.4675  16.4993

          k = 0.0000 0.0000 0.2505 ( 34594 PWs)   bands (ev):

   -69.7600 -69.7585 -60.3657 -60.3633 -38.5116 -38.5066 -38.4711 -38.4704
   -38.4210 -38.4176 -31.7205 -31.7189 -31.6829 -31.6705 -31.6530 -31.6484
   -26.5616 -18.5530 -18.3456 -18.2412 -10.2259  -7.7759  -7.7520  -7.7361
    -6.2462  -5.9735  -5.9391  -5.6030  -5.4593  -5.2528  -5.1918  -5.0120
    -4.8995  -4.7929  -4.5281  -2.4207  -2.2043  -2.0625  -1.9313  -1.8571
    -1.6111  -1.5343  -1.2523  -1.1637   3.3126   4.4257   4.6022   5.8912
     5.9683   6.1432   6.2323   6.4103   6.4815   6.5973   6.7487   7.0475
     7.2255   7.2818   7.4621   7.5912   7.7183   7.8177   7.8887   8.1205
     8.3016   8.4238   8.6162   8.7450   8.9898   9.0595   9.3045   9.5457
     9.6910   9.8993   9.9509  10.0504  10.2038  10.2540  10.3796  10.4989
    10.5443  10.6713  10.7761  10.9109  11.0284  11.0843  11.1450  11.2820
    11.3532  11.7159  11.8353  12.0089  12.1729  12.5933  13.0213  13.7591
    14.5425  15.2210  16.0451  16.2560  16.3825  16.4265  16.4648  16.4778

          k = 0.0000 0.0000-0.5010 ( 34596 PWs)   bands (ev):

   -69.7600 -69.7584 -60.3657 -60.3633 -38.5113 -38.5070 -38.4710 -38.4706
   -38.4206 -38.4180 -31.7205 -31.7189 -31.6823 -31.6709 -31.6513 -31.6505
   -26.5622 -18.5513 -18.3242 -18.2670 -10.2236  -7.7963  -7.7444  -7.7356
    -6.3475  -6.0219  -5.9240  -5.6325  -5.5026  -5.3732  -5.0650  -4.9827
    -4.8717  -4.8212  -4.5378  -2.3445  -2.1690  -2.0619  -1.7977  -1.7489
    -1.5873  -1.3468  -1.2930  -1.1616   3.4107   4.4869   4.6143   5.9564
     6.0260   6.0628   6.2246   6.3504   6.3970   6.5069   6.7654   6.7740
     7.2383   7.3836   7.4790   7.5574   7.7649   7.8627   7.8759   7.9924
     8.0686   8.2278   8.4380   8.5040   8.8283   8.9101   9.4156   9.5037
     9.6425   9.8003   9.9131  10.0920  10.1350  10.2636  10.4357  10.4951
    10.6044  10.6424  10.7200  10.8501  11.0168  11.0749  11.4291  11.6242
    11.7096  11.7266  11.7737  11.9166  11.9869  12.8340  12.9925  13.0754
    15.5117  15.5906  15.6717  15.6872  16.3544  16.4112  16.4620  16.4878

          k = 0.0000 0.1799 0.0000 ( 34594 PWs)   bands (ev):

   -69.7601 -69.7585 -60.3656 -60.3632 -38.5119 -38.5063 -38.4712 -38.4703
   -38.4213 -38.4172 -31.7206 -31.7190 -31.6835 -31.6701 -31.6538 -31.6474
   -26.5609 -18.5500 -18.3631 -18.2247 -10.2266  -7.7560  -7.7483  -7.7392
    -6.1974  -5.8531  -5.7440  -5.7114  -5.4634  -5.2997  -5.1837  -5.0469
    -4.9168  -4.8197  -4.5210  -2.4407  -2.2191  -2.0988  -2.0007  -1.9106
    -1.8162  -1.5500  -1.3023  -1.2163   3.2216   4.3690   4.6316   5.6682
     6.0307   6.3230   6.4523   6.5503   6.7449   6.8825   6.9306   6.9827
     7.0898   7.1547   7.4218   7.5061   7.6192   7.6822   8.1830   8.2202
     8.4013   8.4857   8.6134   8.8322   9.0046   9.0970   9.3552   9.5877
     9.6187   9.8765   9.9890  10.1017  10.1708  10.2710  10.3522  10.5143
    10.5876  10.6095  10.8109  10.8663  10.9949  11.0693  11.1775  11.2634
    11.3059  11.6375  11.9125  11.9765  12.2872  12.4978  13.3067  14.0789
    14.1898  14.9554  15.9798  16.2269  16.4381  16.4439  16.4774  16.5273

          k = 0.0000 0.1799 0.2505 ( 34599 PWs)   bands (ev):

   -69.7601 -69.7585 -60.3656 -60.3632 -38.5116 -38.5066 -38.4711 -38.4704
   -38.4210 -38.4176 -31.7205 -31.7190 -31.6829 -31.6705 -31.6531 -31.6484
   -26.5616 -18.5492 -18.3491 -18.2421 -10.2244  -7.7744  -7.7466  -7.7339
    -6.2545  -5.9555  -5.8776  -5.6032  -5.5378  -5.3058  -5.1417  -5.0435
    -4.9059  -4.7942  -4.5057  -2.3885  -2.2285  -2.1071  -1.8940  -1.8040
    -1.5984  -1.5590  -1.2841  -1.1814   3.3127   4.4418   4.6242   5.9036
     6.0682   6.2283   6.3351   6.4730   6.5319   6.6448   6.8146   7.0509
     7.1897   7.2604   7.4286   7.5401   7.6553   7.7033   7.8781   7.9928
     8.3126   8.3470   8.4687   8.6114   8.6246   9.0834   9.2806   9.6173
     9.7723   9.9978  10.0530  10.1284  10.2288  10.3057  10.3655  10.4595
    10.5912  10.7034  10.7659  10.8848  10.9826  11.1117  11.1406  11.2581
    11.4000  11.6662  11.9550  12.0070  12.1368  12.6892  13.1926  13.8338
    14.5422  15.1465  15.8527  16.2554  16.3776  16.4221  16.4566  16.4857

          k = 0.0000 0.1799-0.5010 ( 34596 PWs)   bands (ev):

   -69.7600 -69.7585 -60.3656 -60.3633 -38.5113 -38.5070 -38.4710 -38.4706
   -38.4206 -38.4180 -31.7205 -31.7190 -31.6823 -31.6710 -31.6513 -31.6505
   -26.5622 -18.5486 -18.3272 -18.2671 -10.2224  -7.7943  -7.7424  -7.7320
    -6.3094  -6.0324  -5.8998  -5.6800  -5.5623  -5.2863  -5.1158  -4.9771
    -4.8860  -4.8352  -4.5198  -2.3311  -2.1773  -2.0836  -1.8667  -1.7346
    -1.5571  -1.3053  -1.2743  -1.1705   3.4090   4.4901   4.6051   5.9772
     6.0706   6.1756   6.3449   6.4063   6.4880   6.5737   6.7552   6.7868
     7.2006   7.2600   7.4919   7.5399   7.6914   7.7727   7.8763   7.9474
     8.0163   8.1447   8.3883   8.4593   8.5040   8.5989   9.5527   9.5986
     9.7733   9.8773  10.0087  10.1461  10.2068  10.3443  10.3567  10.4922
    10.5932  10.6684  10.7428  10.8735  11.0207  11.0831  11.4595  11.5576
    11.6886  11.7412  11.7993  11.8627  11.9610  12.8877  13.1695  13.2438
    15.5048  15.5269  15.5875  15.6190  16.3228  16.4214  16.4562  16.4899

          k = 0.0000-0.3599 0.0000 ( 34714 PWs)   bands (ev):

   -69.7601 -69.7586 -60.3656 -60.3632 -38.5119 -38.5063 -38.4712 -38.4703
   -38.4213 -38.4172 -31.7206 -31.7190 -31.6835 -31.6702 -31.6538 -31.6474
   -26.5609 -18.5445 -18.3677 -18.2260 -10.2248  -7.7525  -7.7477  -7.7353
    -6.2026  -5.8097  -5.7581  -5.6868  -5.4081  -5.3486  -5.2002  -5.1102
    -4.9735  -4.7931  -4.5176  -2.3100  -2.2653  -2.0889  -1.9441  -1.8884
    -1.7764  -1.6264  -1.3873  -1.2698   3.2229   4.4161   4.6526   5.6739
     6.0930   6.5708   6.6497   6.7203   6.7487   6.8898   6.9451   7.0028
     7.0561   7.1696   7.2881   7.4466   7.5269   7.5847   7.8891   8.0377
     8.3077   8.4195   8.5418   8.7315   9.0588   9.0673   9.5167   9.5644
     9.6294   9.8507   9.8557  10.0759  10.3121  10.4044  10.4400  10.4998
    10.5457  10.6106  10.7467  10.9009  10.9704  11.0292  11.2199  11.3086
    11.3598  11.5418  11.8913  12.0796  12.2506  12.5744  13.5273  14.0819
    14.2824  14.8795  15.7223  16.2216  16.4355  16.4440  16.4805  16.5213

          k = 0.0000-0.3599 0.2505 ( 34610 PWs)   bands (ev):

   -69.7601 -69.7585 -60.3656 -60.3632 -38.5116 -38.5066 -38.4711 -38.4704
   -38.4210 -38.4176 -31.7206 -31.7190 -31.6829 -31.6705 -31.6531 -31.6484
   -26.5616 -18.5452 -18.3527 -18.2430 -10.2230  -7.7737  -7.7444  -7.7305
    -6.2119  -5.9771  -5.8545  -5.6066  -5.5444  -5.3413  -5.1599  -5.0387
    -4.9183  -4.8056  -4.5067  -2.3110  -2.2656  -2.1034  -1.9092  -1.7321
    -1.6363  -1.5449  -1.3167  -1.2164   3.3130   4.4564   4.6171   5.9105
     6.0854   6.3723   6.4051   6.6115   6.7063   6.8235   6.9431   6.9833
     7.1018   7.2589   7.3976   7.4687   7.5500   7.6183   7.7770   7.8468
     8.0095   8.2184   8.3513   8.5192   8.6277   9.0764   9.3341   9.6072
     9.8196  10.0356  10.0676  10.1588  10.3045  10.3654  10.4645  10.5857
    10.6303  10.6659  10.7210  10.8199  11.0341  11.0946  11.1746  11.2624
    11.3241  11.5843  11.9494  12.0125  12.1099  12.8506  13.3566  13.9728
    14.5425  15.0570  15.6557  16.2617  16.3673  16.4328  16.4538  16.4858

          k = 0.0000-0.3599-0.5010 ( 34636 PWs)   bands (ev):

   -69.7600 -69.7585 -60.3656 -60.3632 -38.5113 -38.5070 -38.4710 -38.4706
   -38.4206 -38.4180 -31.7206 -31.7190 -31.6823 -31.6710 -31.6513 -31.6506
   -26.5623 -18.5459 -18.3303 -18.2673 -10.2212  -7.7924  -7.7409  -7.7276
    -6.2619  -6.0164  -5.9503  -5.6767  -5.5827  -5.2480  -5.1657  -4.9896
    -4.8930  -4.8401  -4.5037  -2.3282  -2.1887  -2.0574  -1.9514  -1.7238
    -1.5345  -1.2907  -1.2536  -1.1620   3.4074   4.4937   4.5964   6.0365
     6.1214   6.1953   6.3911   6.4158   6.6899   6.7180   6.7820   6.9321
     7.1789   7.2891   7.4235   7.5257   7.5695   7.6682   7.7181   7.8583
     7.8829   8.0367   8.1067   8.3741   8.4407   8.4856   9.5769   9.6498
     9.9732  10.0502  10.0863  10.1615  10.2831  10.3380  10.4587  10.5421
    10.5952  10.7261  10.7451  10.8621  11.0133  11.0200  11.4136  11.4703
    11.6263  11.6954  11.8237  11.8423  11.9565  12.9123  13.4070  13.4710
    15.3829  15.4445  15.5227  15.6126  16.2920  16.4352  16.4506  16.4968

          k = 0.2500 0.0000 0.0000 ( 34600 PWs)   bands (ev):

   -69.7600 -69.7585 -60.3657 -60.3633 -38.5116 -38.5066 -38.4711 -38.4704
   -38.4210 -38.4176 -31.7205 -31.7189 -31.6828 -31.6705 -31.6531 -31.6485
   -26.5616 -18.5530 -18.3457 -18.2419 -10.2246  -7.7715  -7.7487  -7.7431
    -6.1594  -5.9201  -5.8834  -5.6514  -5.4550  -5.3238  -5.2088  -5.0811
    -4.9349  -4.8580  -4.5063  -2.3608  -2.1049  -1.9907  -1.9223  -1.8560
    -1.7414  -1.4874  -1.2844  -1.2561   3.3249   4.4422   4.6006   5.9045
     5.9651   6.1526   6.2842   6.4132   6.4665   6.6655   6.7603   7.0696
     7.1772   7.2924   7.4448   7.6364   7.6994   7.8010   7.9664   8.2262
     8.3061   8.3288   8.6890   8.7266   8.9124   9.1406   9.3252   9.6542
     9.7275   9.8514   9.9137   9.9826  10.1017  10.2749  10.3701  10.4540
    10.5220  10.5936  10.7929  10.9042  11.0213  11.0607  11.1705  11.2676
    11.3654  11.6500  11.8888  12.0029  12.1758  12.5786  12.9891  13.7036
    14.4633  15.2336  16.0478  16.2891  16.3488  16.4093  16.4591  16.4856

          k = 0.2500 0.0000 0.2505 ( 34646 PWs)   bands (ev):

   -69.7601 -69.7586 -60.3657 -60.3633 -38.5113 -38.5070 -38.4710 -38.4706
   -38.4215 -38.4170 -31.7206 -31.7189 -31.6827 -31.6709 -31.6534 -31.6479
   -26.5623 -18.5512 -18.3376 -18.2535 -10.2255  -7.7844  -7.7616  -7.7389
    -6.2750  -6.1483  -5.9029  -5.5289  -5.4317  -5.2994  -5.1630  -5.0810
    -4.8917  -4.8647  -4.5073  -2.2724  -2.0517  -1.9944  -1.8614  -1.7498
    -1.6711  -1.4614  -1.3283  -1.1279   3.4264   4.5094   4.5779   5.6361
     5.8437   6.0917   6.1225   6.2862   6.3297   6.4948   6.7852   7.0919
     7.2086   7.3452   7.6389   7.7053   7.8820   7.9018   7.9748   8.1503
     8.2109   8.3360   8.4785   8.8457   8.9923   9.2160   9.3222   9.3797
     9.4348   9.5992   9.8714  10.0026  10.0913  10.2902  10.3883  10.5229
    10.5874  10.6688  10.7464  10.7839  10.8967  11.1298  11.3160  11.4116
    11.5381  11.6664  11.7250  11.8889  12.2139  12.3369  12.8156  13.7498
    14.5218  15.5616  15.7058  16.3153  16.3706  16.4283  16.4608  16.5109

          k = 0.2500 0.0000-0.5010 ( 34638 PWs)   bands (ev):

   -69.7602 -69.7587 -60.3657 -60.3633 -38.5117 -38.5066 -38.4711 -38.4704
   -38.4212 -38.4174 -31.7206 -31.7188 -31.6826 -31.6713 -31.6521 -31.6489
   -26.5629 -18.5498 -18.3258 -18.2683 -10.2296  -7.8153  -7.7748  -7.7344
    -6.3857  -6.2507  -5.8412  -5.5661  -5.4174  -5.3067  -5.0991  -4.9922
    -4.8957  -4.8429  -4.5734  -2.2021  -2.0399  -1.9841  -1.8636  -1.7323
    -1.5673  -1.3889  -1.2107  -1.0385   3.3130   4.4439   4.6116   5.7331
     5.8569   6.0683   6.1420   6.3289   6.4368   6.5336   6.7178   6.9884
     7.2811   7.3315   7.4326   7.6335   7.7384   7.7827   7.8879   8.0131
     8.1431   8.3691   8.5304   8.7180   8.9158   8.9870   9.2466   9.3300
     9.5166   9.7050   9.8900   9.9535  10.0651  10.3139  10.3653  10.4667
    10.6004  10.6648  10.7410  10.8175  10.8855  10.9489  11.3418  11.4661
    11.6458  11.7790  11.8249  11.9590  12.0666  12.2155  13.0335  13.4917
    14.9619  15.0163  16.0751  16.1428  16.3610  16.4340  16.4771  16.4979

          k = 0.2500 0.1799 0.0000 ( 34601 PWs)   bands (ev):

   -69.7600 -69.7585 -60.3656 -60.3632 -38.5116 -38.5066 -38.4711 -38.4704
   -38.4210 -38.4176 -31.7206 -31.7190 -31.6828 -31.6705 -31.6531 -31.6485
   -26.5616 -18.5494 -18.3489 -18.2428 -10.2232  -7.7713  -7.7478  -7.7381
    -6.0951  -5.9731  -5.8539  -5.6142  -5.4761  -5.3833  -5.2613  -5.0654
    -4.9227  -4.8666  -4.5032  -2.3908  -2.1058  -1.9629  -1.8764  -1.8295
    -1.6641  -1.5081  -1.3505  -1.3138   3.3245   4.4524   4.5956   5.9212
     6.0203   6.3012   6.3976   6.5010   6.6019   6.6937   6.7769   7.0604
     7.1548   7.2660   7.4454   7.5001   7.6359   7.7136   7.8707   8.0836
     8.3384   8.3953   8.4618   8.4886   8.7465   9.1653   9.2545   9.6494
     9.8096   9.9430   9.9933  10.1350  10.2125  10.2778  10.3490  10.4738
    10.5080  10.6144  10.7366  10.8723  10.9919  11.0593  11.1631  11.2179
    11.4753  11.5993  11.9657  11.9994  12.1470  12.6909  13.1557  13.7887
    14.4652  15.1591  15.8450  16.2808  16.3534  16.4185  16.4581  16.4943

          k = 0.2500 0.1799 0.2505 ( 34620 PWs)   bands (ev):

   -69.7601 -69.7586 -60.3656 -60.3632 -38.5113 -38.5070 -38.4710 -38.4706
   -38.4215 -38.4170 -31.7206 -31.7189 -31.6827 -31.6709 -31.6534 -31.6480
   -26.5623 -18.5487 -18.3401 -18.2540 -10.2241  -7.7829  -7.7603  -7.7343
    -6.2558  -6.1178  -5.9018  -5.5755  -5.4887  -5.3188  -5.1080  -5.0822
    -4.9064  -4.8703  -4.4821  -2.3023  -2.0799  -2.0134  -1.8562  -1.6994
    -1.5982  -1.4523  -1.3632  -1.1702   3.4257   4.5200   4.6028   5.6422
     5.8783   6.1571   6.2192   6.3648   6.4776   6.5873   6.8257   7.1124
     7.1759   7.3388   7.4617   7.6377   7.7213   7.7825   7.9875   8.0266
     8.1452   8.2812   8.3496   8.6112   9.0105   9.1463   9.2958   9.4389
     9.6048   9.7726   9.9764  10.0536  10.1447  10.2356  10.3081  10.4530
    10.6224  10.6898  10.7446  10.8555  10.8895  11.0739  11.3351  11.4018
    11.5949  11.6626  11.7720  11.8732  12.1918  12.3887  12.9668  13.9292
    14.4916  15.5001  15.5909  16.2774  16.3433  16.4153  16.4755  16.5128

          k = 0.2500 0.1799-0.5010 ( 34628 PWs)   bands (ev):

   -69.7602 -69.7587 -60.3656 -60.3632 -38.5117 -38.5066 -38.4711 -38.4704
   -38.4212 -38.4174 -31.7207 -31.7189 -31.6826 -31.6713 -31.6521 -31.6489
   -26.5629 -18.5482 -18.3278 -18.2685 -10.2283  -7.8114  -7.7737  -7.7294
    -6.3607  -6.2482  -5.8703  -5.5892  -5.4428  -5.2672  -5.1038  -5.0080
    -4.8982  -4.8500  -4.5460  -2.2297  -2.0290  -1.9762  -1.8739  -1.7859
    -1.5214  -1.3611  -1.2121  -1.0557   3.3130   4.4630   4.6263   5.8011
     5.8663   6.1962   6.2240   6.4390   6.5034   6.6319   6.7471   6.9716
     7.1763   7.2908   7.3833   7.5209   7.5690   7.6959   7.8778   7.9394
     8.0560   8.1525   8.5169   8.6542   8.7835   8.9303   9.3741   9.4851
     9.5837   9.7232   9.9761  10.0934  10.1811  10.2383  10.3324  10.4315
    10.5095  10.6331  10.7196  10.7759  10.9646  11.0383  11.3916  11.4695
    11.5783  11.7973  11.8400  11.9292  12.0367  12.2562  13.2023  13.6973
    14.9057  14.9508  16.0214  16.0517  16.3578  16.4427  16.4739  16.5030

          k = 0.2500-0.3599 0.0000 ( 34630 PWs)   bands (ev):

   -69.7601 -69.7585 -60.3656 -60.3632 -38.5116 -38.5066 -38.4711 -38.4704
   -38.4210 -38.4176 -31.7206 -31.7190 -31.6828 -31.6705 -31.6531 -31.6485
   -26.5616 -18.5454 -18.3525 -18.2437 -10.2217  -7.7693  -7.7469  -7.7323
    -6.1256  -5.9171  -5.8136  -5.6183  -5.4833  -5.3999  -5.3144  -5.0735
    -4.9384  -4.8755  -4.4947  -2.3165  -2.1315  -1.9267  -1.8779  -1.8149
    -1.6995  -1.5079  -1.4058  -1.3186   3.3251   4.4776   4.6140   5.9167
     6.0792   6.4298   6.4604   6.5607   6.7496   6.8854   6.9374   7.0546
     7.1324   7.1855   7.3358   7.4080   7.5442   7.6302   7.7843   7.9305
     7.9878   8.2568   8.4183   8.4673   8.6550   9.1918   9.3633   9.6918
     9.8116   9.9838  10.0582  10.1115  10.2427  10.3408  10.4007  10.5032
    10.6040  10.6727  10.8174  10.8634  10.9271  11.0081  11.1073  11.1979
    11.3947  11.5820  11.9665  12.0283  12.1255  12.8419  13.3144  13.9321
    14.4665  15.0549  15.6278  16.2637  16.3561  16.4354  16.4529  16.5046

          k = 0.2500-0.3599 0.2505 ( 34616 PWs)   bands (ev):

   -69.7601 -69.7586 -60.3656 -60.3632 -38.5113 -38.5070 -38.4709 -38.4706
   -38.4215 -38.4170 -31.7206 -31.7189 -31.6827 -31.6709 -31.6535 -31.6480
   -26.5623 -18.5460 -18.3429 -18.2545 -10.2226  -7.7818  -7.7584  -7.7299
    -6.2346  -6.0699  -5.9352  -5.6295  -5.4813  -5.3200  -5.1910  -4.9998
    -4.9412  -4.8397  -4.4885  -2.2740  -2.1155  -2.0080  -1.8436  -1.7057
    -1.5660  -1.4752  -1.3414  -1.2137   3.4249   4.5283   4.6304   5.6401
     5.9069   6.2478   6.2860   6.4349   6.7422   6.8641   6.9119   7.0168
     7.0705   7.3058   7.3601   7.4861   7.5936   7.7201   7.7902   7.8687
     8.0631   8.1561   8.3167   8.4583   8.9614   9.1791   9.2963   9.4581
     9.7579   9.9533  10.0121  10.1080  10.1699  10.3011  10.3928  10.4525
    10.5693  10.6877  10.7744  10.7973  10.8853  11.0077  11.3463  11.3725
    11.5441  11.6183  11.7855  11.8961  12.2002  12.4688  13.1434  14.1767
    14.4556  15.3701  15.4540  16.2388  16.3299  16.4248  16.4632  16.5067

          k = 0.2500-0.3599-0.5010 ( 34616 PWs)   bands (ev):

   -69.7602 -69.7587 -60.3656 -60.3632 -38.5117 -38.5066 -38.4711 -38.4704
   -38.4212 -38.4174 -31.7207 -31.7189 -31.6826 -31.6713 -31.6521 -31.6489
   -26.5630 -18.5465 -18.3300 -18.2686 -10.2271  -7.8079  -7.7727  -7.7248
    -6.3276  -6.1992  -5.9429  -5.6432  -5.4397  -5.2589  -5.1596  -5.0273
    -4.8517  -4.8098  -4.5344  -2.2363  -2.0611  -1.9641  -1.8860  -1.7833
    -1.5063  -1.3249  -1.2218  -1.0809   3.3115   4.4863   4.6100   5.8494
     5.9194   6.3127   6.3775   6.5040   6.7089   6.7510   6.8527   6.9848
     7.0508   7.1136   7.2362   7.3379   7.5457   7.6515   7.7683   7.8883
     7.9642   8.0388   8.2995   8.5861   8.7016   8.8943   9.4105   9.5603
     9.6719   9.9838  10.0205  10.1534  10.1918  10.2715  10.3580  10.4912
    10.5458  10.5951  10.7321  10.7988  10.8969  11.0118  11.3267  11.4187
    11.5476  11.7628  11.8474  11.9043  12.0135  12.3260  13.4250  13.9699
    14.8304  14.8479  15.9280  15.9485  16.3392  16.4372  16.4645  16.5004

          k =-0.5000 0.0000 0.0000 ( 34568 PWs)   bands (ev):

   -69.7600 -69.7584 -60.3657 -60.3633 -38.5113 -38.5070 -38.4710 -38.4706
   -38.4206 -38.4180 -31.7205 -31.7189 -31.6821 -31.6709 -31.6513 -31.6507
   -26.5623 -18.5513 -18.3236 -18.2690 -10.2211  -7.7886  -7.7532  -7.7332
    -6.1792  -5.9658  -5.8040  -5.6178  -5.5378  -5.3817  -5.3031  -5.1543
    -4.9570  -4.8415  -4.4976  -2.2592  -2.0339  -1.8117  -1.7300  -1.6888
    -1.6589  -1.5373  -1.3866  -1.3546   3.4368   4.5379   4.6017   5.9897
     6.0951   6.1255   6.2128   6.3203   6.4426   6.5344   6.7862   6.9095
     7.1801   7.3910   7.4930   7.5054   7.8582   7.8674   7.9563   7.9979
     8.2581   8.3114   8.3815   8.4403   8.7219   8.8099   9.4118   9.5285
     9.6605   9.8599   9.9722   9.9929  10.1347  10.2316  10.3942  10.4448
    10.4757  10.5005  10.7578  10.8463  11.0644  11.1413  11.3626  11.4832
    11.7454  11.7793  11.8410  11.8674  11.9917  12.6955  12.9167  13.0390
    15.4027  15.4365  15.6638  15.7059  16.3418  16.4064  16.4650  16.4828

          k =-0.5000 0.0000 0.2505 ( 34664 PWs)   bands (ev):

   -69.7602 -69.7587 -60.3657 -60.3633 -38.5117 -38.5066 -38.4711 -38.4704
   -38.4212 -38.4174 -31.7207 -31.7188 -31.6826 -31.6713 -31.6522 -31.6490
   -26.5630 -18.5498 -18.3256 -18.2693 -10.2284  -7.8127  -7.7765  -7.7343
    -6.2944  -6.2639  -5.7589  -5.5305  -5.4439  -5.3680  -5.1737  -5.0644
    -4.9369  -4.8575  -4.5572  -2.1772  -1.9423  -1.8727  -1.7962  -1.7268
    -1.6219  -1.5157  -1.1914  -1.1640   3.3258   4.4592   4.6201   5.7506
     5.8886   6.0590   6.1594   6.3436   6.4385   6.6506   6.6771   6.9775
     7.2768   7.3588   7.4463   7.6376   7.7516   7.8070   7.8534   8.0353
     8.2455   8.3752   8.5551   8.7593   8.8640   8.9621   9.2053   9.2845
     9.4851   9.6248   9.8392  10.0755  10.1768  10.2348  10.2604  10.4521
    10.5278  10.6513  10.7171  10.8171  10.9796  11.0596  11.2757  11.4256
    11.5897  11.7029  11.8016  12.0329  12.1130  12.1655  13.0037  13.4662
    14.9406  14.9783  16.0396  16.1403  16.3441  16.4312  16.4666  16.4971

          k =-0.5000 0.0000-0.5010 ( 34628 PWs)   bands (ev):

   -69.7604 -69.7589 -60.3657 -60.3633 -38.5120 -38.5062 -38.4712 -38.4703
   -38.4217 -38.4169 -31.7208 -31.7187 -31.6830 -31.6716 -31.6523 -31.6480
   -26.5636 -18.5487 -18.3272 -18.2697 -10.2358  -7.8456  -7.7930  -7.7319
    -6.4376  -6.3935  -5.6687  -5.4951  -5.4584  -5.3777  -5.1474  -4.9374
    -4.8953  -4.8132  -4.6304  -2.1285  -1.9580  -1.9243  -1.8145  -1.6001
    -1.5856  -1.4802  -1.0489  -1.0000   3.2238   4.3525   4.6478   5.5335
     5.6271   6.0510   6.1470   6.4262   6.5005   6.5295   6.6696   7.0452
     7.2125   7.2616   7.3476   7.6209   7.7162   7.9943   8.0413   8.0889
     8.2724   8.5296   8.5627   8.8182   8.9322   8.9993   9.0131   9.1885
     9.3368   9.5240   9.8953   9.9915  10.0662  10.1809  10.3848  10.5249
    10.6104  10.6986  10.7481  10.7947  10.8851  10.9046  11.1700  11.2961
    11.5541  11.6541  11.7489  11.7756  12.0872  12.2584  13.1423  13.5980
    14.6809  14.7555  16.2222  16.2920  16.3728  16.4531  16.4768  16.5110

          k =-0.5000 0.1799 0.0000 ( 34614 PWs)   bands (ev):

   -69.7600 -69.7585 -60.3656 -60.3633 -38.5113 -38.5070 -38.4710 -38.4706
   -38.4206 -38.4180 -31.7205 -31.7190 -31.6821 -31.6709 -31.6513 -31.6507
   -26.5623 -18.5489 -18.3264 -18.2691 -10.2198  -7.7871  -7.7512  -7.7296
    -6.1377  -5.9545  -5.7660  -5.7198  -5.5166  -5.3894  -5.3166  -5.1363
    -4.9911  -4.8465  -4.4948  -2.2710  -1.9981  -1.8701  -1.7438  -1.6928
    -1.6185  -1.4977  -1.4228  -1.3319   3.4349   4.5420   4.5900   6.0421
     6.1521   6.2351   6.2997   6.3337   6.5477   6.6211   6.7766   6.8897
     7.2081   7.3121   7.4756   7.5132   7.7258   7.8038   7.8791   7.9173
     8.1715   8.2700   8.2944   8.3817   8.5024   8.5828   9.5852   9.7376
     9.8000   9.8506   9.9822  10.1115  10.1698  10.2394  10.3120  10.4252
    10.4875  10.5861  10.7447  10.8000  10.9716  11.1661  11.4162  11.5174
    11.6892  11.7061  11.8285  11.8942  12.0262  12.7345  13.1064  13.2226
    15.3962  15.4254  15.5408  15.5724  16.3348  16.4135  16.4659  16.4870

          k =-0.5000 0.1799 0.2505 ( 34620 PWs)   bands (ev):

   -69.7602 -69.7587 -60.3656 -60.3632 -38.5117 -38.5066 -38.4711 -38.4704
   -38.4212 -38.4174 -31.7207 -31.7189 -31.6826 -31.6713 -31.6522 -31.6490
   -26.5630 -18.5483 -18.3275 -18.2695 -10.2271  -7.8092  -7.7758  -7.7299
    -6.2783  -6.2052  -5.8094  -5.6545  -5.4270  -5.2990  -5.1861  -5.0809
    -4.9820  -4.8154  -4.5230  -2.1969  -1.9347  -1.8825  -1.8174  -1.7449
    -1.5909  -1.4436  -1.2431  -1.1727   3.3253   4.4795   4.6091   5.8048
     5.9065   6.2153   6.3091   6.4192   6.5277   6.6847   6.7088   6.9975
     7.2054   7.2840   7.4130   7.4657   7.5353   7.7172   7.8896   7.9809
     8.1188   8.2542   8.4859   8.6413   8.7608   8.9451   9.3588   9.4940
     9.5964   9.6501   9.8838   9.9853  10.1708  10.2897  10.3109  10.4200
    10.5456  10.6503  10.7460  10.7865  10.8942  11.0716  11.2834  11.4993
    11.5867  11.6757  11.7753  12.0497  12.1131  12.1796  13.1841  13.6675
    14.8775  14.9286  15.9688  16.0150  16.3404  16.4307  16.4780  16.5098

          k =-0.5000 0.1799-0.5010 ( 34624 PWs)   bands (ev):

   -69.7605 -69.7589 -60.3656 -60.3632 -38.5120 -38.5062 -38.4712 -38.4703
   -38.4217 -38.4169 -31.7208 -31.7188 -31.6830 -31.6717 -31.6523 -31.6480
   -26.5637 -18.5479 -18.3284 -18.2698 -10.2344  -7.8394  -7.7922  -7.7271
    -6.4309  -6.3691  -5.7239  -5.5605  -5.4689  -5.3423  -5.1362  -4.9923
    -4.8525  -4.7852  -4.5980  -2.1247  -1.9475  -1.9224  -1.8038  -1.7096
    -1.5333  -1.4491  -1.0794  -1.0151   3.2240   4.4007   4.6581   5.6145
     5.6662   6.2378   6.3116   6.4911   6.5251   6.6228   6.7476   6.9563
     7.1399   7.1815   7.2901   7.3278   7.4033   7.8906   7.9977   8.0869
     8.1812   8.3237   8.5179   8.8735   8.9739   9.0995   9.2361   9.3147
     9.4983   9.6345   9.8345   9.8926   9.9941  10.1386  10.3047  10.4256
    10.4928  10.6775  10.7608  10.8777  10.9636  11.0088  11.2068  11.3095
    11.5160  11.6809  11.7428  11.8017  12.0699  12.2369  13.3140  13.8194
    14.6195  14.6899  16.1365  16.1984  16.3617  16.4451  16.4862  16.5119

          k =-0.5000-0.3599 0.0000 ( 34592 PWs)   bands (ev):

   -69.7600 -69.7585 -60.3656 -60.3632 -38.5113 -38.5070 -38.4710 -38.4706
   -38.4206 -38.4180 -31.7206 -31.7190 -31.6821 -31.6709 -31.6514 -31.6507
   -26.5623 -18.5464 -18.3294 -18.2692 -10.2186  -7.7856  -7.7496  -7.7256
    -6.0852  -5.9109  -5.8589  -5.7019  -5.4780  -5.4490  -5.3351  -5.0877
    -5.0492  -4.8537  -4.4892  -2.2776  -2.0072  -1.8480  -1.7495  -1.7050
    -1.6017  -1.5059  -1.4362  -1.3013   3.4330   4.5459   4.5789   6.1151
     6.2091   6.2584   6.3235   6.3911   6.7081   6.7982   6.8730   6.9140
     7.2077   7.3263   7.4087   7.4842   7.5932   7.6874   7.7155   7.8741
     7.9231   8.0346   8.2666   8.3292   8.4447   8.4691   9.7282   9.7533
     9.9193   9.9808  10.0523  10.1228  10.2387  10.3147  10.3859  10.4690
    10.4793  10.5549  10.8009  10.8845  10.9084  10.9416  11.4887  11.5185
    11.5625  11.6188  11.8221  11.9027  12.0414  12.7705  13.3353  13.4608
    15.3424  15.3591  15.4363  15.4834  16.3279  16.4228  16.4688  16.4898

          k =-0.5000-0.3599 0.2505 ( 34604 PWs)   bands (ev):

   -69.7602 -69.7587 -60.3656 -60.3632 -38.5117 -38.5066 -38.4711 -38.4704
   -38.4212 -38.4174 -31.7207 -31.7189 -31.6826 -31.6713 -31.6522 -31.6490
   -26.5630 -18.5467 -18.3295 -18.2696 -10.2258  -7.8058  -7.7741  -7.7251
    -6.2734  -6.1752  -5.8110  -5.7125  -5.4056  -5.3226  -5.2335  -5.0721
    -4.9281  -4.8153  -4.5277  -2.2380  -1.9218  -1.8464  -1.8296  -1.7709
    -1.5385  -1.4358  -1.2753  -1.1862   3.3244   4.5053   4.6137   5.8675
     5.9459   6.3357   6.4036   6.5331   6.6544   6.7840   6.8771   6.9741
     7.1011   7.1506   7.2620   7.3298   7.4978   7.6493   7.7771   7.9243
     7.9401   8.0410   8.3849   8.5989   8.7341   8.9468   9.3887   9.5242
     9.7178   9.7847  10.0126  10.0895  10.1892  10.2380  10.4010  10.5040
    10.5714  10.6223  10.6736  10.7655  10.8623  11.0065  11.2864  11.4269
    11.5516  11.6627  11.7975  12.0224  12.1162  12.2337  13.4037  13.9460
    14.8013  14.8088  15.8841  15.9143  16.3536  16.4292  16.4758  16.5049

          k =-0.5000-0.3599-0.5010 ( 34584 PWs)   bands (ev):

   -69.7605 -69.7589 -60.3656 -60.3632 -38.5120 -38.5062 -38.4712 -38.4703
   -38.4217 -38.4169 -31.7209 -31.7188 -31.6830 -31.6717 -31.6523 -31.6480
   -26.5637 -18.5471 -18.3296 -18.2699 -10.2330  -7.8332  -7.7915  -7.7222
    -6.4279  -6.3357  -5.7914  -5.6160  -5.4011  -5.3783  -5.1274  -5.0435
    -4.8152  -4.7615  -4.5667  -2.1182  -1.9384  -1.9062  -1.8187  -1.7576
    -1.5354  -1.4118  -1.1129  -1.0304   3.2243   4.4507   4.6693   5.6252
     5.8156   6.4709   6.5107   6.5949   6.6659   6.7364   6.7939   6.8640
     6.9461   7.0037   7.0403   7.1420   7.3909   7.7183   7.8711   8.0313
     8.0872   8.1644   8.4853   8.8499   9.0024   9.1865   9.3102   9.4208
     9.5962   9.7140   9.8589   9.9083  10.1015  10.1252  10.2625  10.4576
    10.5043  10.6000  10.7349  10.8527  10.9285  11.0074  11.1915  11.3293
    11.4755  11.6896  11.7286  11.8451  12.0510  12.2090  13.5488  14.1644
    14.5205  14.5304  16.0488  16.0748  16.3857  16.4439  16.4815  16.5112

          k = 0.0000-0.1799 0.2505 ( 34599 PWs)   bands (ev):

   -69.7601 -69.7585 -60.3656 -60.3632 -38.5116 -38.5066 -38.4711 -38.4704
   -38.4210 -38.4176 -31.7205 -31.7190 -31.6829 -31.6705 -31.6531 -31.6484
   -26.5616 -18.5492 -18.3490 -18.2422 -10.2245  -7.7752  -7.7490  -7.7337
    -6.1965  -6.0133  -5.9103  -5.5968  -5.4791  -5.2899  -5.1881  -5.0307
    -4.8919  -4.8129  -4.5280  -2.3766  -2.1978  -2.0870  -1.9447  -1.7541
    -1.6385  -1.5571  -1.2909  -1.1813   3.3129   4.4383   4.5971   5.8968
     6.0292   6.2532   6.3858   6.5212   6.5706   6.6326   6.7576   7.0158
     7.1588   7.2979   7.4830   7.5283   7.6641   7.7173   7.8137   8.0614
     8.2323   8.3835   8.4260   8.6371   8.6787   9.0846   9.2590   9.6017
     9.8180   9.9129  10.0854  10.1110  10.1837  10.3268  10.3929  10.4290
    10.5382  10.6549  10.8107  10.9866  11.0282  11.0785  11.1564  11.2975
    11.3701  11.6209  11.9450  11.9856  12.1422  12.6994  13.1921  13.8263
    14.5427  15.1447  15.8831  16.2747  16.3628  16.4352  16.4567  16.4756

          k =-0.2500 0.0000 0.2505 ( 34646 PWs)   bands (ev):

   -69.7601 -69.7586 -60.3657 -60.3633 -38.5119 -38.5063 -38.4712 -38.4703
   -38.4206 -38.4180 -31.7206 -31.7189 -31.6828 -31.6708 -31.6515 -31.6498
   -26.5623 -18.5512 -18.3377 -18.2535 -10.2287  -7.7976  -7.7694  -7.7363
    -6.2489  -6.1391  -5.9040  -5.4455  -5.4170  -5.3013  -5.2030  -5.0962
    -4.9509  -4.7963  -4.5614  -2.2747  -2.0503  -1.9876  -1.9306  -1.8183
    -1.6258  -1.4237  -1.3017  -1.1172   3.2227   4.4731   4.5662   5.9840
     6.0902   6.1546   6.3197   6.5670   6.6198   6.6701   6.7498   6.8793
     7.0473   7.1282   7.2655   7.3630   7.6437   7.7695   7.9225   8.1427
     8.2507   8.3839   8.6122   8.7561   8.9654   9.0481   9.3492   9.3809
     9.5995   9.7998   9.9391  10.0143  10.2190  10.2586  10.3401  10.3710
    10.5032  10.6639  10.7124  10.7860  10.8654  11.0931  11.1896  11.4015
    11.6186  11.6771  11.8356  11.9150  12.1404  12.9387  13.0578  13.2538
    14.5302  15.5949  15.6771  16.2985  16.3370  16.4432  16.4571  16.4815

          k =-0.2500 0.1799 0.0000 ( 34601 PWs)   bands (ev):

   -69.7600 -69.7585 -60.3656 -60.3632 -38.5116 -38.5066 -38.4711 -38.4704
   -38.4210 -38.4176 -31.7206 -31.7190 -31.6828 -31.6705 -31.6531 -31.6485
   -26.5616 -18.5492 -18.3491 -18.2428 -10.2231  -7.7695  -7.7474  -7.7377
    -6.1735  -5.9007  -5.8127  -5.6830  -5.4381  -5.3469  -5.2801  -5.0561
    -4.9710  -4.8599  -4.4993  -2.2828  -2.1038  -2.0099  -1.9011  -1.8456
    -1.7634  -1.5200  -1.3204  -1.2544   3.3256   4.4644   4.6221   5.9031
     6.0551   6.3081   6.3466   6.4253   6.5525   6.7223   6.8001   7.0729
     7.1626   7.2990   7.4078   7.5554   7.6439   7.7496   7.8870   8.0573
     8.1939   8.3095   8.5024   8.6102   8.7306   9.1629   9.3930   9.7111
     9.8007   9.8815   9.9600  10.0256  10.1407  10.2518  10.3665  10.5044
    10.5847  10.6541  10.7378  10.9278  10.9556  11.0334  11.1670  11.2643
    11.4631  11.5404  11.9936  12.0188  12.1508  12.6727  13.1560  13.7762
    14.4633  15.1423  15.8536  16.2748  16.3479  16.4322  16.4538  16.5114

          k =-0.2500-0.1799 0.2505 ( 34620 PWs)   bands (ev):

   -69.7601 -69.7586 -60.3656 -60.3632 -38.5119 -38.5063 -38.4712 -38.4703
   -38.4206 -38.4180 -31.7207 -31.7189 -31.6828 -31.6709 -31.6515 -31.6498
   -26.5623 -18.5487 -18.3401 -18.2540 -10.2274  -7.7948  -7.7682  -7.7317
    -6.2186  -6.1357  -5.8958  -5.4616  -5.4330  -5.3739  -5.2227  -5.0607
    -4.9057  -4.8195  -4.5611  -2.3284  -2.0584  -1.9987  -1.8322  -1.7600
    -1.6320  -1.4514  -1.3283  -1.1447   3.2232   4.4752   4.5525   6.0919
     6.1464   6.3391   6.4211   6.6028   6.6449   6.7212   6.7642   6.8882
     7.0948   7.1165   7.2180   7.3558   7.4976   7.6808   7.7602   8.0653
     8.2028   8.3507   8.4372   8.5766   8.6562   9.1209   9.3938   9.5248
     9.6875   9.8558   9.9729  10.1336  10.1729  10.2621  10.3209  10.4079
    10.5071  10.5678  10.7981  10.8734  10.9280  11.0363  11.2171  11.3364
    11.6037  11.6715  11.8581  11.8979  12.1025  13.0803  13.2356  13.3376
    14.5010  15.5095  15.5759  16.2748  16.3320  16.4389  16.4528  16.4844

          k =-0.2500 0.1799-0.2505 ( 34620 PWs)   bands (ev):

   -69.7601 -69.7586 -60.3656 -60.3632 -38.5113 -38.5070 -38.4710 -38.4706
   -38.4215 -38.4170 -31.7206 -31.7189 -31.6827 -31.6709 -31.6534 -31.6480
   -26.5623 -18.5485 -18.3402 -18.2540 -10.2240  -7.7832  -7.7597  -7.7346
    -6.2537  -6.1163  -5.9218  -5.5640  -5.4593  -5.2809  -5.2323  -5.0226
    -4.9192  -4.8308  -4.5157  -2.2515  -2.0667  -1.9994  -1.8761  -1.7136
    -1.6737  -1.4689  -1.3025  -1.1747   3.4256   4.5166   4.6055   5.6345
     5.8741   6.2017   6.2753   6.3591   6.4285   6.5294   6.8399   7.1131
     7.1890   7.3027   7.4956   7.6187   7.6837   7.8484   7.9728   8.0294
     8.1413   8.3099   8.3862   8.5467   8.9414   9.2169   9.3314   9.4743
     9.6353   9.7718   9.8744  10.0354  10.1049  10.2678  10.3879  10.4969
    10.5678  10.6577  10.6984  10.7712  10.9719  11.0992  11.3630  11.4659
    11.4936  11.6430  11.7870  11.8885  12.2287  12.3807  12.9576  13.9193
    14.4976  15.4772  15.5973  16.2717  16.3489  16.4203  16.4660  16.5092

          k = 0.2500-0.1799-0.2505 ( 34620 PWs)   bands (ev):

   -69.7601 -69.7586 -60.3656 -60.3632 -38.5119 -38.5063 -38.4712 -38.4703
   -38.4206 -38.4180 -31.7207 -31.7189 -31.6828 -31.6709 -31.6515 -31.6498
   -26.5623 -18.5485 -18.3403 -18.2540 -10.2274  -7.7947  -7.7671  -7.7315
    -6.2237  -6.0899  -5.9450  -5.4853  -5.4288  -5.3328  -5.2424  -5.0878
    -4.9446  -4.7701  -4.5313  -2.2349  -2.1010  -2.0399  -1.9035  -1.7883
    -1.5642  -1.4481  -1.3276  -1.1366   3.2230   4.4782   4.5599   6.0360
     6.2344   6.3462   6.4010   6.6067   6.6312   6.6988   6.8229   6.8910
     7.0225   7.0653   7.2835   7.3489   7.4489   7.6535   7.8037   8.1519
     8.2274   8.3061   8.4075   8.5198   8.7328   9.0731   9.3799   9.5320
     9.7558   9.8727   9.9255  10.0891  10.1788  10.3302  10.3765  10.4701
    10.5304  10.6022  10.6623  10.7596  10.8906  11.0580  11.2214  11.4182
    11.5736  11.6613  11.8516  11.9075  12.1214  13.0879  13.2165  13.3472
    14.5064  15.4932  15.5716  16.2569  16.3064  16.4414  16.4562  16.4930

          k =-0.2500 0.1799 0.5010 ( 34628 PWs)   bands (ev):

   -69.7602 -69.7587 -60.3656 -60.3632 -38.5117 -38.5066 -38.4711 -38.4704
   -38.4212 -38.4174 -31.7207 -31.7189 -31.6826 -31.6713 -31.6521 -31.6489
   -26.5629 -18.5481 -18.3280 -18.2685 -10.2284  -7.8118  -7.7739  -7.7298
    -6.3532  -6.2152  -5.8778  -5.6655  -5.4122  -5.2728  -5.1582  -5.0048
    -4.8508  -4.8089  -4.5616  -2.2141  -2.0426  -2.0012  -1.8793  -1.7245
    -1.5546  -1.3471  -1.2197  -1.0643   3.3115   4.4647   4.5971   5.7794
     5.8870   6.2778   6.3323   6.3872   6.4556   6.5892   6.7345   6.9654
     7.1870   7.2511   7.3954   7.4821   7.5444   7.7363   7.8463   7.9962
     8.1136   8.2843   8.4603   8.6127   8.6858   8.9200   9.4144   9.4943
     9.6592   9.7326   9.9210  10.0024  10.1637  10.2600  10.2917  10.3873
    10.4938  10.7012  10.7528  10.9100  10.9443  11.0311  11.3521  11.4417
    11.5829  11.7495  11.8341  11.9390  12.0415  12.2896  13.2027  13.6917
    14.9173  14.9577  15.9890  16.0455  16.3374  16.4349  16.4742  16.5090

          k =-0.2500 0.3599 0.2505 ( 34616 PWs)   bands (ev):

   -69.7602 -69.7586 -60.3656 -60.3632 -38.5119 -38.5063 -38.4712 -38.4703
   -38.4206 -38.4180 -31.7207 -31.7190 -31.6828 -31.6709 -31.6515 -31.6498
   -26.5623 -18.5459 -18.3429 -18.2545 -10.2262  -7.7919  -7.7661  -7.7267
    -6.1936  -6.0776  -5.9451  -5.5149  -5.4358  -5.3855  -5.2630  -5.0656
    -4.9073  -4.7873  -4.5312  -2.2907  -2.1262  -1.9937  -1.8299  -1.7587
    -1.5592  -1.4522  -1.3674  -1.1697   3.2234   4.4813   4.5457   6.1780
     6.2393   6.4639   6.5816   6.6682   6.7551   6.8240   6.8619   6.9239
     6.9753   7.0777   7.1962   7.3037   7.3744   7.5451   7.7293   7.8775
     7.9382   8.2228   8.3249   8.4372   8.5904   9.1180   9.3913   9.6174
     9.7765   9.9266  10.0719  10.1672  10.2400  10.3548  10.4049  10.4517
    10.5376  10.5983  10.7530  10.8195  10.8954  10.9926  11.2033  11.3097
    11.5448  11.6373  11.8489  11.8838  12.0848  13.1630  13.4294  13.5610
    14.4613  15.3740  15.4573  16.2366  16.3050  16.4383  16.4501  16.4967

          k = 0.5000-0.1799 0.2505 ( 34620 PWs)   bands (ev):

   -69.7602 -69.7587 -60.3656 -60.3632 -38.5117 -38.5066 -38.4711 -38.4704
   -38.4212 -38.4174 -31.7207 -31.7189 -31.6826 -31.6713 -31.6522 -31.6490
   -26.5630 -18.5483 -18.3275 -18.2695 -10.2270  -7.8092  -7.7748  -7.7294
    -6.2930  -6.2388  -5.7390  -5.6256  -5.4539  -5.3421  -5.2041  -5.0506
    -4.8949  -4.8593  -4.5643  -2.2283  -1.8841  -1.8664  -1.8015  -1.7803
    -1.5765  -1.4903  -1.2190  -1.1781   3.3249   4.4815   4.6278   5.8248
     5.8896   6.2059   6.3547   6.4025   6.4393   6.6866   6.7341   7.0013
     7.2134   7.2560   7.4056   7.5105   7.5518   7.7344   7.8612   7.9883
     8.0213   8.3324   8.4575   8.6338   8.7725   8.9690   9.3696   9.4499
     9.6544   9.7700   9.8101   9.9659  10.1261  10.2422  10.2910  10.4561
    10.5343  10.6335  10.7454  10.7937  10.8733  11.1615  11.3359  11.4352
    11.5347  11.6919  11.8234  12.0023  12.1339  12.2059  13.1703  13.6729
    14.8857  14.9143  15.9511  16.0434  16.3542  16.4317  16.4705  16.4951

 ------ SPIN DOWN ----------


[...]
   -26.5447 -18.5165 -18.2797 -18.2319 -10.0350  -7.8247  -7.7782  -7.7206
    -6.4128  -6.3718  -5.6614  -5.4864  -5.4373  -5.3470  -5.1318  -4.9679
    -4.8168  -4.7802  -4.6286  -2.0750  -1.9013  -1.8817  -1.7826  -1.5964
    -1.5681  -1.4818  -1.0450  -0.9975   4.0255   5.0721   5.1816   6.7463
     6.9256   7.3831   7.4690   7.5671   7.7236   7.9203   7.9647   8.0705
     8.1025   8.4845   8.6806   8.8370   8.9692   9.0209   9.0962   9.1515
     9.2086   9.3274   9.3645   9.6128   9.7978   9.9449  10.0656  10.1130
    10.1745  10.2800  10.4881  10.5850  10.6716  10.7412  10.9098  11.0651
    14.8149  14.9037  14.9873  15.0355  15.3428  15.4803  15.6465  15.6930
    15.9661  16.0567  16.1884  16.3308  16.3594  16.4369  16.4933  16.5077
    16.5340  16.5504  16.5772  16.6066  16.6270  16.6550  16.6851  16.7252

          k =-0.5000 0.1799 0.0000 ( 34614 PWs)   bands (ev):

   -65.5760 -65.5447 -57.3693 -57.3669 -34.5642 -34.5609 -34.3332 -34.2854
   -34.2291 -34.1838 -28.7970 -28.7951 -28.7432 -28.7412 -28.6861 -28.6810
   -26.5461 -18.5151 -18.2934 -18.2378 -10.0293  -7.7721  -7.7312  -7.7121
    -6.1778  -5.9274  -5.7367  -5.7092  -5.4515  -5.3678  -5.2573  -5.1193
    -4.9311  -4.8301  -4.5029  -2.2007  -1.9230  -1.8170  -1.7009  -1.6513
    -1.5891  -1.4763  -1.3931  -1.3163   4.0577   5.1146   5.1586   6.8706
     7.1561   7.4380   7.6109   7.9079   7.9962   8.1149   8.2164   8.3008
     8.4043   8.5234   8.5850   8.6778   8.7635   8.8767   9.1343   9.2555
     9.3244   9.4161   9.5022   9.5898   9.6958   9.7681  10.0927  10.1827
    10.2582  10.3948  10.4287  10.4898  10.5596  10.6512  10.9746  11.0059
    15.1256  15.2236  15.2360  15.3350  15.3772  15.4066  15.6866  15.7457
    15.9783  16.1274  16.1649  16.2533  16.3049  16.3658  16.4110  16.4617
    16.4854  16.5412  16.5658  16.5996  16.6301  16.6483  16.6901  16.7246

          k =-0.5000 0.1799 0.2505 ( 34620 PWs)   bands (ev):

   -65.5758 -65.5446 -57.3691 -57.3667 -34.5642 -34.5609 -34.3333 -34.2853
   -34.2292 -34.1837 -28.7983 -28.7940 -28.7447 -28.7404 -28.6858 -28.6806
   -26.5454 -18.5131 -18.2894 -18.2348 -10.0315  -7.7918  -7.7593  -7.7153
    -6.2632  -6.1906  -5.8182  -5.6441  -5.3849  -5.2659  -5.1524  -5.0384
    -4.9320  -4.8002  -4.5337  -2.1378  -1.8816  -1.8308  -1.7723  -1.7211
    -1.5625  -1.4299  -1.2288  -1.1582   4.0445   5.1104   5.1573   6.8685
     7.0930   7.3868   7.5252   7.8039   7.9530   8.0130   8.1266   8.2127
     8.2588   8.4728   8.5617   8.7169   8.7724   8.9287   9.0518   9.1312
     9.3055   9.3551   9.4779   9.5574   9.7963   9.8869  10.0712  10.1100
    10.2786  10.3576  10.4157  10.5053  10.5887  10.7136  10.8978  10.9904
    14.9834  15.1186  15.2670  15.3118  15.3394  15.4694  15.5627  15.5923
    16.0531  16.1472  16.2248  16.2971  16.3428  16.4034  16.4393  16.4678
    16.5040  16.5400  16.5718  16.6087  16.6406  16.6538  16.6888  16.7104

          k =-0.5000 0.1799-0.5010 ( 34624 PWs)   bands (ev):

   -65.5756 -65.5444 -57.3689 -57.3665 -34.5642 -34.5609 -34.3335 -34.2852
   -34.2294 -34.1835 -28.7992 -28.7934 -28.7458 -28.7401 -28.6856 -28.6803
   -26.5447 -18.5111 -18.2854 -18.2318 -10.0335  -7.8201  -7.7779  -7.7156
    -6.3924  -6.3680  -5.7318  -5.5283  -5.4688  -5.3271  -5.0790  -4.9599
    -4.8137  -4.7658  -4.6095  -2.0766  -1.8971  -1.8774  -1.7754  -1.6834
    -1.5188  -1.4429  -1.0784  -1.0125   4.0276   5.0866   5.1945   6.8217
     7.0321   7.3873   7.4327   7.6874   7.8182   7.8984   7.9869   8.0924
     8.1804   8.3996   8.5295   8.7071   8.7978   8.9132   9.0369   9.1422
     9.2658   9.3449   9.5701   9.6960   9.7887   9.8782   9.9370  10.1075
    10.2537  10.3114  10.4325  10.5299  10.6435  10.6807  10.9249  11.0404
    14.9069  15.0226  15.0797  15.1544  15.3534  15.4863  15.6449  15.6925
    15.9712  16.1070  16.1710  16.2712  16.3381  16.4303  16.4846  16.5054
    16.5116  16.5424  16.5555  16.5875  16.6313  16.6519  16.6948  16.7106

          k =-0.5000-0.3599 0.0000 ( 34592 PWs)   bands (ev):

   -65.5761 -65.5448 -57.3694 -57.3669 -34.5642 -34.5609 -34.3332 -34.2854
   -34.2291 -34.1838 -28.7970 -28.7951 -28.7432 -28.7411 -28.6861 -28.6810
   -26.5461 -18.5111 -18.2976 -18.2379 -10.0280  -7.7711  -7.7295  -7.7085
    -6.1393  -5.8777  -5.8607  -5.6889  -5.4016  -5.3891  -5.3003  -5.0716
    -4.9715  -4.8325  -4.5014  -2.2074  -1.9379  -1.7958  -1.7065  -1.6563
    -1.5572  -1.4859  -1.4154  -1.2933   4.0582   5.1157   5.1484   6.9257
     7.3434   7.4230   7.5467   7.9058   7.9870   8.0369   8.2611   8.3087
     8.4517   8.5781   8.6307   8.7825   8.9259   8.9502   9.0070   9.0193
     9.1460   9.1840   9.4322   9.5189   9.6466   9.7939  10.1909  10.2049
    10.3013  10.4243  10.4855  10.4931  10.5888  10.7109  10.9343  10.9807
    15.1516  15.2429  15.2596  15.3543  15.3991  15.4213  15.9039  15.9905
    16.0062  16.1038  16.1319  16.2325  16.2565  16.3562  16.3939  16.4521
    16.4709  16.5457  16.5691  16.5928  16.6164  16.6405  16.6581  16.6996

          k =-0.5000-0.3599 0.2505 ( 34604 PWs)   bands (ev):

   -65.5759 -65.5447 -57.3692 -57.3667 -34.5642 -34.5609 -34.3333 -34.2853
   -34.2292 -34.1837 -28.7983 -28.7940 -28.7447 -28.7404 -28.6858 -28.6806
   -26.5454 -18.5082 -18.2944 -18.2348 -10.0300  -7.7891  -7.7578  -7.7106
    -6.2646  -6.1641  -5.8291  -5.6965  -5.3745  -5.2956  -5.1800  -4.9793
    -4.9131  -4.7984  -4.5409  -2.1707  -1.8621  -1.8001  -1.7897  -1.7439
    -1.5150  -1.4243  -1.2596  -1.1700   4.0453   5.1155   5.1692   6.9392
     7.2957   7.3358   7.4605   7.9015   7.9662   8.0524   8.1708   8.2420
     8.3213   8.3934   8.5117   8.5748   8.6812   8.7665   9.0109   9.1997
     9.3007   9.4389   9.4561   9.5875   9.6927   9.8213   9.9991  10.1514
    10.2778  10.3767  10.3969  10.4890  10.6678  10.7816  10.8894  10.9152
    15.0547  15.1831  15.3111  15.3450  15.4575  15.4875  15.5996  15.6215
    15.9809  16.1758  16.2602  16.3565  16.3667  16.4054  16.4424  16.4751
    16.4916  16.5174  16.5709  16.5885  16.6168  16.6337  16.6726  16.6896

          k =-0.5000-0.3599-0.5010 ( 34584 PWs)   bands (ev):

   -65.5757 -65.5445 -57.3690 -57.3665 -34.5642 -34.5609 -34.3334 -34.2852
   -34.2294 -34.1835 -28.7992 -28.7933 -28.7458 -28.7401 -28.6856 -28.6803
   -26.5447 -18.5054 -18.2913 -18.2318 -10.0320  -7.8155  -7.7775  -7.7105
    -6.3836  -6.3492  -5.8000  -5.5897  -5.4193  -5.3601  -5.0664  -4.9243
    -4.8047  -4.7623  -4.5876  -2.0759  -1.8936  -1.8647  -1.7835  -1.7246
    -1.5074  -1.4028  -1.1152  -1.0280   4.0296   5.1015   5.2072   6.8973
     7.2336   7.2774   7.4358   7.8549   7.8768   7.9854   7.9989   8.1655
     8.2518   8.3140   8.3367   8.4134   8.6720   8.7540   9.1427   9.1851
     9.3373   9.3928   9.6159   9.6355   9.7569   9.8154  10.0791  10.1041
    10.1452  10.2408  10.3345  10.4179  10.7544  10.8700  10.8841  10.9104
    15.0031  15.1102  15.1879  15.2516  15.3746  15.4999  15.6448  15.7009
    15.9034  16.1341  16.2222  16.2735  16.2974  16.4168  16.4602  16.4871
    16.5041  16.5157  16.5550  16.5950  16.6275  16.6628  16.6666  16.7324

          k = 0.0000-0.1799 0.2505 ( 34599 PWs)   bands (ev):

   -65.5759 -65.5447 -57.3693 -57.3668 -34.5642 -34.5609 -34.3333 -34.2853
   -34.2292 -34.1837 -28.7970 -28.7954 -28.7453 -28.7392 -28.6874 -28.6793
   -26.5469 -18.5176 -18.3296 -18.2065 -10.0341  -7.7596  -7.7257  -7.7125
    -6.2454  -5.9675  -5.8871  -5.5602  -5.4542  -5.2322  -5.1535  -4.9806
    -4.8902  -4.7923  -4.5260  -2.2725  -2.1144  -2.0306  -1.8934  -1.7104
    -1.6040  -1.5313  -1.2667  -1.1613   3.9763   5.0620   5.1744   6.6598
     7.0554   7.2793   7.7733   7.9258   8.0027   8.0958   8.2555   8.3345
     8.4617   8.5299   8.6375   8.6769   8.7906   8.9252   9.0850   9.2127
     9.3873   9.4742   9.5835   9.7814   9.8447   9.9732  10.1407  10.2141
    10.3632  10.4556  10.5124  10.5856  10.7621  10.9301  11.0218  11.0691
    14.8138  15.0038  15.0786  15.2568  15.3569  15.5030  15.5890  15.7617
    15.8734  15.9544  16.1585  16.1949  16.2482  16.3091  16.4322  16.4567
    16.5162  16.5252  16.5538  16.5706  16.6100  16.6232  16.6779  16.7061

          k =-0.2500 0.0000 0.2505 ( 34646 PWs)   bands (ev):

   -65.5758 -65.5445 -57.3692 -57.3667 -34.5642 -34.5609 -34.3332 -34.2854
   -34.2294 -34.1835 -28.7980 -28.7946 -28.7434 -28.7413 -28.6870 -28.6796
   -26.5462 -18.5194 -18.3089 -18.2170 -10.0328  -7.7770  -7.7526  -7.7189
    -6.2630  -6.1202  -5.8861  -5.4445  -5.3536  -5.2657  -5.1754  -5.0654
    -4.9212  -4.7720  -4.5615  -2.2018  -1.9958  -1.9342  -1.8630  -1.7716
    -1.5939  -1.4030  -1.2931  -1.1002   3.9838   5.0857   5.1745   6.7698
     7.0409   7.2537   7.7014   7.8594   7.9689   8.0169   8.1581   8.2477
     8.3839   8.4583   8.5694   8.6127   8.7148   8.9349   9.1113   9.2633
     9.4967   9.5690   9.6400   9.6803   9.8840   9.9498  10.0861  10.1339
    10.2289  10.2938  10.4990  10.7022  10.7431  10.8134  10.8714  10.9203
    14.8439  15.0449  15.0947  15.2422  15.3618  15.4822  15.5253  15.6020
    15.7639  16.1058  16.1679  16.2748  16.3426  16.3937  16.4430  16.4746
    16.5184  16.5335  16.5659  16.5979  16.6182  16.6686  16.6861  16.7108

          k =-0.2500 0.1799 0.0000 ( 34601 PWs)   bands (ev):

   -65.5759 -65.5447 -57.3693 -57.3668 -34.5642 -34.5609 -34.3333 -34.2853
   -34.2292 -34.1837 -28.7971 -28.7954 -28.7453 -28.7391 -28.6874 -28.6794
   -26.5469 -18.5178 -18.3294 -18.2069 -10.0323  -7.7503  -7.7263  -7.7180
    -6.2065  -5.8785  -5.7901  -5.6435  -5.3649  -5.3221  -5.2478  -5.0130
    -4.9434  -4.8647  -4.4997  -2.2097  -2.0158  -1.9362  -1.8453  -1.8047
    -1.7188  -1.4860  -1.2921  -1.2456   3.9984   5.0774   5.1974   6.7545
     7.1404   7.2837   7.7888   7.8411   7.9767   8.0841   8.2418   8.3826
     8.4384   8.4709   8.5657   8.7071   8.9087   8.9981   9.1943   9.2845
     9.3916   9.5570   9.6471   9.7756   9.8228   9.9912  10.0923  10.1586
    10.3132  10.4209  10.4670  10.5248  10.6309  10.8444  10.9665  11.0082
    14.8654  14.9909  15.0920  15.2585  15.3424  15.4921  15.6016  15.7700
    15.9153  15.9903  16.1363  16.1984  16.2819  16.3334  16.3797  16.4637
    16.5121  16.5300  16.5523  16.6084  16.6340  16.6445  16.6757  16.7308

          k =-0.2500-0.1799 0.2505 ( 34620 PWs)   bands (ev):

   -65.5759 -65.5446 -57.3692 -57.3667 -34.5642 -34.5609 -34.3332 -34.2854
   -34.2294 -34.1835 -28.7980 -28.7945 -28.7434 -28.7413 -28.6870 -28.6796
   -26.5462 -18.5153 -18.3129 -18.2173 -10.0314  -7.7741  -7.7517  -7.7147
    -6.2338  -6.1233  -5.8912  -5.4552  -5.4118  -5.3090  -5.1708  -5.0143
    -4.8935  -4.7822  -4.5626  -2.2376  -1.9971  -1.9455  -1.7891  -1.7223
    -1.6025  -1.4292  -1.3134  -1.1236   3.9871   5.0861   5.1634   6.8778
     7.1586   7.2428   7.6581   7.9130   7.9894   8.0163   8.1577   8.2628
     8.4144   8.4963   8.5541   8.5826   8.7162   8.9722   9.0948   9.2373
     9.3523   9.5099   9.5867   9.6823   9.7491   9.8702  10.0110  10.1201
    10.2062  10.3997  10.5336  10.7021  10.7588  10.8116  10.8722  10.9444
    14.9320  15.0945  15.1605  15.2555  15.3890  15.4817  15.6500  15.7488
    15.8400  16.0771  16.1114  16.2291  16.2817  16.3731  16.4293  16.4825
    16.5067  16.5289  16.5710  16.5878  16.6174  16.6638  16.6875  16.7187

          k =-0.2500 0.1799-0.2505 ( 34620 PWs)   bands (ev):

   -65.5759 -65.5446 -57.3692 -57.3668 -34.5642 -34.5609 -34.3334 -34.2852
   -34.2291 -34.1838 -28.7977 -28.7946 -28.7460 -28.7389 -28.6864 -28.6802
   -26.5462 -18.5154 -18.3124 -18.2177 -10.0340  -7.7678  -7.7394  -7.7162
    -6.2762  -6.0480  -5.9012  -5.5707  -5.4327  -5.2625  -5.1705  -5.0056
    -4.8529  -4.8289  -4.5188  -2.1841  -1.9968  -1.9482  -1.8259  -1.6743
    -1.6387  -1.4439  -1.2871  -1.1541   4.0363   5.0952   5.1709   6.6358
     7.1331   7.2776   7.6920   7.9482   7.9651   8.0716   8.1242   8.2367
     8.3603   8.4214   8.5151   8.6444   8.8127   9.0224   9.0944   9.2441
     9.3565   9.4900   9.5562   9.7218   9.8460   9.9417  10.0523  10.1569
    10.2465  10.3458  10.4871  10.6582  10.6995  10.8117  10.9086  10.9926
    14.9215  15.0069  15.0427  15.1942  15.2735  15.6340  15.6719  15.7881
    15.9034  16.0763  16.2066  16.2284  16.2756  16.3818  16.4295  16.4601
    16.4931  16.5021  16.5385  16.5630  16.6135  16.6481  16.6835  16.7045

          k = 0.2500-0.1799-0.2505 ( 34620 PWs)   bands (ev):

   -65.5759 -65.5446 -57.3692 -57.3667 -34.5642 -34.5609 -34.3332 -34.2854
   -34.2294 -34.1835 -28.7980 -28.7945 -28.7434 -28.7413 -28.6870 -28.6796
   -26.5462 -18.5154 -18.3129 -18.2173 -10.0316  -7.7740  -7.7505  -7.7143
    -6.2308  -6.0999  -5.9410  -5.4739  -5.3520  -5.2828  -5.2120  -5.0143
    -4.9386  -4.7645  -4.5349  -2.1733  -2.0296  -1.9806  -1.8413  -1.7405
    -1.5422  -1.4260  -1.3126  -1.1192   3.9872   5.0867   5.1716   6.8957
     7.1025   7.2527   7.6351   7.8876   7.9776   8.0479   8.1737   8.3024
     8.4036   8.4874   8.5749   8.6082   8.7129   8.9773   9.0894   9.1954
     9.3401   9.4489   9.6109   9.7272   9.7814   9.8570  10.0300  10.1780
    10.2522  10.3660  10.4666  10.6718  10.7313  10.8169  10.8990  10.9408
    14.9455  15.0830  15.1520  15.2554  15.3762  15.4908  15.6433  15.7585
    15.8316  16.0687  16.1479  16.2240  16.3529  16.3724  16.4295  16.4637
    16.4904  16.5204  16.5547  16.5955  16.6089  16.6532  16.6910  16.7186

          k =-0.2500 0.1799 0.5010 ( 34628 PWs)   bands (ev):

   -65.5758 -65.5446 -57.3691 -57.3667 -34.5642 -34.5609 -34.3333 -34.2853
   -34.2292 -34.1836 -28.7983 -28.7940 -28.7447 -28.7405 -28.6858 -28.6806
   -26.5454 -18.5130 -18.2900 -18.2339 -10.0333  -7.7963  -7.7550  -7.7152
    -6.3632  -6.1832  -5.8844  -5.6348  -5.3829  -5.2348  -5.1384  -4.9392
    -4.8348  -4.7780  -4.5701  -2.1532  -1.9877  -1.9499  -1.8294  -1.6913
    -1.5346  -1.3365  -1.2112  -1.0533   4.0208   5.0896   5.1610   6.7201
     7.0957   7.2655   7.5581   7.8435   7.8887   8.0022   8.0774   8.2238
     8.2482   8.4944   8.5461   8.6501   8.7396   8.9760   9.0639   9.2069
     9.3287   9.3669   9.4271   9.6150   9.7667   9.9017  10.0541  10.1623
    10.2465  10.3668  10.4119  10.5865  10.7432  10.7970  10.8535  11.0497
    14.9873  15.1028  15.2584  15.2901  15.3317  15.4294  15.5550  15.6169
    16.0317  16.1760  16.2283  16.2818  16.3153  16.4055  16.4353  16.4797
    16.5224  16.5340  16.5600  16.5938  16.6453  16.6534  16.6725  16.6940

          k =-0.2500 0.3599 0.2505 ( 34616 PWs)   bands (ev):

   -65.5760 -65.5447 -57.3692 -57.3668 -34.5642 -34.5609 -34.3332 -34.2854
   -34.2294 -34.1835 -28.7979 -28.7945 -28.7434 -28.7413 -28.6869 -28.6796
   -26.5461 -18.5110 -18.3171 -18.2176 -10.0302  -7.7711  -7.7499  -7.7099
    -6.1934  -6.1068  -5.9509  -5.5030  -5.3903  -5.3109  -5.2043  -5.0038
    -4.8895  -4.7749  -4.5365  -2.2086  -2.0470  -1.9502  -1.7784  -1.7205
    -1.5402  -1.4355  -1.3422  -1.1461   3.9905   5.0877   5.1600   7.0544
     7.1638   7.3042   7.5450   7.9252   7.9948   8.0424   8.1538   8.3759
     8.4063   8.5207   8.5770   8.6396   8.7940   8.9720   9.0406   9.0826
     9.2227   9.4006   9.4903   9.5465   9.8025   9.8707   9.9344  10.1847
    10.2397  10.4745  10.5255  10.6662  10.6994  10.7665  10.9137  11.0002
    15.0443  15.0921  15.2196  15.2684  15.4159  15.4909  15.6821  15.9306
    16.0059  16.0423  16.1159  16.1792  16.2811  16.3401  16.4009  16.4655
    16.5023  16.5188  16.5595  16.5866  16.6184  16.6446  16.6917  16.7073

          k = 0.5000-0.1799 0.2505 ( 34620 PWs)   bands (ev):

   -65.5758 -65.5446 -57.3691 -57.3667 -34.5642 -34.5609 -34.3333 -34.2853
   -34.2292 -34.1837 -28.7983 -28.7940 -28.7447 -28.7404 -28.6858 -28.6806
   -26.5454 -18.5131 -18.2894 -18.2348 -10.0313  -7.7915  -7.7585  -7.7149
    -6.2973  -6.2032  -5.7388  -5.6037  -5.4533  -5.2986  -5.1715  -5.0043
    -4.8660  -4.8193  -4.5710  -2.1644  -1.8310  -1.8206  -1.7605  -1.7461
    -1.5584  -1.4741  -1.2043  -1.1628   4.0433   5.1054   5.1794   6.8619
     7.0842   7.4269   7.5234   7.8527   7.9594   8.0110   8.0450   8.1243
     8.2513   8.4626   8.5588   8.7208   8.8189   8.9210   9.0141   9.1758
     9.2931   9.3971   9.4845   9.5828   9.7773   9.9469  10.0070  10.1296
    10.2379  10.3790  10.4094  10.5381  10.5819  10.7471  10.8965  10.9561
    14.9978  15.1166  15.2678  15.2795  15.3533  15.4694  15.5586  15.6008
    16.0468  16.1693  16.2332  16.2865  16.3446  16.4111  16.4500  16.4983
    16.5013  16.5238  16.5534  16.5898  16.6220  16.6600  16.6748  16.6985

     the Fermi energy is    12.2384 ev

!    total energy              =   -3090.21904039 Ry

     total all-electron energy =    -62928.618798 Ry
     estimated scf accuracy    <       0.00000066 Ry
     smearing contrib. (-TS)   =      -0.00235170 Ry
     internal energy E=F+TS    =   -3090.21668869 Ry

     The total energy is F=E-TS. E is the sum of the following terms:
     one-electron contribution =    -524.76588140 Ry
     hartree contribution      =     381.02326507 Ry
     xc contribution           =    -423.55742784 Ry
     ewald contribution        =   -1048.76562619 Ry
     Hubbard energy            =       0.73578533 Ry
     one-center paw contrib.   =   -1474.88680366 Ry

     total magnetization       =    13.00 Bohr mag/cell
     absolute magnetization    =    14.65 Bohr mag/cell

     convergence has been achieved in  19 iterations

     Writing output data file ./pwscf.save/
 
     init_run     :     30.29s CPU     30.82s WALL (       1 calls)
     electrons    :   1223.96s CPU   1239.53s WALL (       1 calls)

     Called by init_run:
     wfcinit      :     24.67s CPU     25.00s WALL (       1 calls)
     potinit      :      2.56s CPU      2.58s WALL (       1 calls)
     hinit0       :      2.25s CPU      2.30s WALL (       1 calls)

     Called by electrons:
     c_bands      :   1053.60s CPU   1063.23s WALL (      19 calls)
     sum_band     :    136.84s CPU    140.49s WALL (      19 calls)
     v_of_rho     :      1.97s CPU      2.02s WALL (      20 calls)
     newd         :     12.94s CPU     15.24s WALL (      20 calls)
     PAW_pot      :     19.67s CPU     19.68s WALL (      20 calls)
     mix_rho      :      0.42s CPU      0.43s WALL (      19 calls)

     Called by c_bands:
     init_us_2    :     11.24s CPU     11.27s WALL (    2880 calls)
     cegterg      :    989.06s CPU    997.76s WALL (    1424 calls)

     Called by *egterg:
     cdiaghg      :    166.48s CPU    167.59s WALL (   11034 calls)
     h_psi        :    558.70s CPU    566.22s WALL (   11106 calls)
     s_psi        :     64.41s CPU     64.54s WALL (   11178 calls)
     g_psi        :      3.73s CPU      3.74s WALL (    9610 calls)

     Called by h_psi:
     h_psi:calbec :     58.76s CPU     58.93s WALL (   11106 calls)
     vloc_psi     :    413.21s CPU    420.34s WALL (   11106 calls)
     add_vuspsi   :     62.32s CPU     62.41s WALL (   11106 calls)
     vhpsi        :     21.51s CPU     21.59s WALL (   11106 calls)

     General routines
     calbec       :     95.57s CPU     95.85s WALL (   25020 calls)
     fft          :      1.22s CPU      1.27s WALL (     494 calls)
     ffts         :      0.08s CPU      0.09s WALL (      78 calls)
     fftw         :    443.07s CPU    450.74s WALL (  956996 calls)
     interpolate  :      0.14s CPU      0.14s WALL (      40 calls)
     davcio       :      0.01s CPU      0.11s WALL (      72 calls)
 
     Parallel routines
     fft_scatt_xy :     67.08s CPU     68.11s WALL (  957568 calls)
     fft_scatt_yz :    131.87s CPU    134.23s WALL (  957568 calls)

     Hubbard U routines
     new_ns       :      3.86s CPU      3.89s WALL (      19 calls)
     new_ns       :      3.86s CPU      3.89s WALL (      19 calls)
     vhpsi        :     21.51s CPU     21.59s WALL (   11106 calls)
 
     PWSCF        :  20m59.06s CPU  21m19.36s WALL

 
   This run was terminated on:  16:33:17  18Oct2024            

=------------------------------------------------------------------------------=
   JOB DONE.
=------------------------------------------------------------------------------=
